  -20.0000000       0.00000000    
  -19.9274998       0.00000000    
  -19.8549995       0.00000000    
  -19.7824993       0.00000000    
  -19.7099991       0.00000000    
  -19.6375008       0.00000000    
  -19.5650005       0.00000000    
  -19.4925003       0.00000000    
  -19.4200001       0.00000000    
  -19.3474998       0.00000000    
  -19.2749996       0.00000000    
  -19.2024994       0.00000000    
  -19.1299992       0.00000000    
  -19.0575008       0.00000000    
  -18.9850006       0.00000000    
  -18.9125004       0.00000000    
  -18.8400002       0.00000000    
  -18.7674999       0.00000000    
  -18.6949997       0.00000000    
  -18.6224995       0.00000000    
  -18.5499992       0.00000000    
  -18.4775009       0.00000000    
  -18.4050007       0.00000000    
  -18.3325005       0.00000000    
  -18.2600002       0.00000000    
  -18.1875000       0.00000000    
  -18.1149998       0.00000000    
  -18.0424995       0.00000000    
  -17.9699993       0.00000000    
  -17.8974991       0.00000000    
  -17.8250008       0.00000000    
  -17.7525005       0.00000000    
  -17.6800003       0.00000000    
  -17.6075001       0.00000000    
  -17.5349998       0.00000000    
  -17.4624996       0.00000000    
  -17.3899994       0.00000000    
  -17.3174992       0.00000000    
  -17.2450008       0.00000000    
  -17.1725006       0.00000000    
  -17.1000004       0.00000000    
  -17.0275002       0.00000000    
  -16.9549999       0.00000000    
  -16.8824997       0.00000000    
  -16.8099995       0.00000000    
  -16.7374992       0.00000000    
  -16.6650009       0.00000000    
  -16.5925007       0.00000000    
  -16.5200005       0.00000000    
  -16.4475002       0.00000000    
  -16.3750000       0.00000000    
  -16.3024998       0.00000000    
  -16.2299995       0.00000000    
  -16.1574993       0.00000000    
  -16.0849991       0.00000000    
  -16.0125008       0.00000000    
  -15.9399996       0.00000000    
  -15.8675003       0.00000000    
  -15.7950001       0.00000000    
  -15.7224998       0.00000000    
  -15.6499996       0.00000000    
  -15.5775003       0.00000000    
  -15.5050001       0.00000000    
  -15.4324999       0.00000000    
  -15.3599997       0.00000000    
  -15.2875004       0.00000000    
  -15.2150002       0.00000000    
  -15.1424999       0.00000000    
  -15.0699997       0.00000000    
  -14.9975004       0.00000000    
  -14.9250002       0.00000000    
  -14.8525000       0.00000000    
  -14.7799997       0.00000000    
  -14.7075005       0.00000000    
  -14.6350002       0.00000000    
  -14.5625000       0.00000000    
  -14.4899998       0.00000000    
  -14.4174995       0.00000000    
  -14.3450003       0.00000000    
  -14.2725000       0.00000000    
  -14.1999998       0.00000000    
  -14.1274996       0.00000000    
  -14.0550003       0.00000000    
  -13.9825001       0.00000000    
  -13.9099998       0.00000000    
  -13.8374996       0.00000000    
  -13.7650003       0.00000000    
  -13.6925001       0.00000000    
  -13.6199999       0.00000000    
  -13.5474997       0.00000000    
  -13.4750004       0.00000000    
  -13.4025002       0.00000000    
  -13.3299999       0.00000000    
  -13.2574997       0.00000000    
  -13.1850004       0.00000000    
  -13.1125002       0.00000000    
  -13.0400000       0.00000000    
  -12.9674997       0.00000000    
  -12.8950005       0.00000000    
  -12.8225002       0.00000000    
  -12.7500000       0.00000000    
  -12.6774998       0.00000000    
  -12.6049995       0.00000000    
  -12.5325003       0.00000000    
  -12.4600000       0.00000000    
  -12.3874998       0.00000000    
  -12.3149996       0.00000000    
  -12.2425003       0.00000000    
  -12.1700001       0.00000000    
  -12.0974998       0.00000000    
  -12.0249996       0.00000000    
  -11.9525003       0.00000000    
  -11.8800001       0.00000000    
  -11.8074999       0.00000000    
  -11.7349997       0.00000000    
  -11.6625004       0.00000000    
  -11.5900002       0.00000000    
  -11.5174999       0.00000000    
  -11.4449997       0.00000000    
  -11.3725004       0.00000000    
  -11.3000002       0.00000000    
  -11.2275000       0.00000000    
  -11.1549997       0.00000000    
  -11.0825005       0.00000000    
  -11.0100002       0.00000000    
  -10.9375000       0.00000000    
  -10.8649998       0.00000000    
  -10.7924995       0.00000000    
  -10.7200003       0.00000000    
  -10.6475000       0.00000000    
  -10.5749998       0.00000000    
  -10.5024996       0.00000000    
  -10.4300003       0.00000000    
  -10.3575001       0.00000000    
  -10.2849998       0.00000000    
  -10.2124996       0.00000000    
  -10.1400003       0.00000000    
  -10.0675001       0.00000000    
  -9.99499989       0.00000000    
  -9.92249966       0.00000000    
  -9.85000038       0.00000000    
  -9.77750015       0.00000000    
  -9.70499992       0.00000000    
  -9.63249969       0.00000000    
  -9.56000042       0.00000000    
  -9.48750019       0.00000000    
  -9.41499996       0.00000000    
  -9.34249973       0.00000000    
  -9.27000046       0.00000000    
  -9.19750023       0.00000000    
  -9.12500000       0.00000000    
  -9.05249977       0.00000000    
  -8.97999954       0.00000000    
  -8.90750027       0.00000000    
  -8.83500004       0.00000000    
  -8.76249981       0.00000000    
  -8.68999958       0.00000000    
  -8.61750031       0.00000000    
  -8.54500008       0.00000000    
  -8.47249985       0.00000000    
  -8.39999962       0.00000000    
  -8.32750034       0.00000000    
  -8.25500011       0.00000000    
  -8.18249989       0.00000000    
  -8.10999966       0.00000000    
  -8.03750038       0.00000000    
  -7.96500015       0.00000000    
  -7.89249992       0.00000000    
  -7.82000017       0.00000000    
  -7.74749994       0.00000000    
  -7.67500019       0.00000000    
  -7.60249996       0.00000000    
  -7.53000021       0.00000000    
  -7.45749998       0.00000000    
  -7.38500023       0.00000000    
  -7.31250000       0.00000000    
  -7.23999977       0.00000000    
  -7.16750002       0.00000000    
  -7.09499979       0.00000000    
  -7.02250004       0.00000000    
  -6.94999981       0.00000000    
  -6.87750006       0.00000000    
  -6.80499983       0.00000000    
  -6.73250008       0.00000000    
  -6.65999985       0.00000000    
  -6.58750010       0.00000000    
  -6.51499987       0.00000000    
  -6.44250011       0.00000000    
  -6.36999989       0.00000000    
  -6.29750013       0.00000000    
  -6.22499990       0.00000000    
  -6.15250015       0.00000000    
  -6.07999992       0.00000000    
  -6.00750017       0.00000000    
  -5.93499994       0.00000000    
  -5.86250019       0.00000000    
  -5.78999996       0.00000000    
  -5.71750021       0.00000000    
  -5.64499998       0.00000000    
  -5.57250023       0.00000000    
  -5.50000000       0.00000000    
  -5.42749977       0.00000000    
  -5.35500002       0.00000000    
  -5.28249979       0.00000000    
  -5.21000004       0.00000000    
  -5.13749981       0.00000000    
  -5.06500006       0.00000000    
  -4.99249983       0.00000000    
  -4.92000008       0.00000000    
  -4.84749985       0.00000000    
  -4.77500010       0.00000000    
  -4.70249987       0.00000000    
  -4.63000011       0.00000000    
  -4.55749989       0.00000000    
  -4.48500013       0.00000000    
  -4.41249990       0.00000000    
  -4.34000015       0.00000000    
  -4.26749992       0.00000000    
  -4.19500017       0.00000000    
  -4.12249994       0.00000000    
  -4.05000019       0.00000000    
  -3.97749996       0.00000000    
  -3.90499997       0.00000000    
  -3.83249998       0.00000000    
  -3.75999999       0.00000000    
  -3.68750000       0.00000000    
  -3.61500001       0.00000000    
  -3.54250002       0.00000000    
  -3.47000003       0.00000000    
  -3.39750004       0.00000000    
  -3.32500005       0.00000000    
  -3.25250006       0.00000000    
  -3.18000007       0.00000000    
  -3.10750008       0.00000000    
  -3.03500009       0.00000000    
  -2.96250010       0.00000000    
  -2.89000010       0.00000000    
  -2.81750011       0.00000000    
  -2.74499989       0.00000000    
  -2.67249990       0.00000000    
  -2.59999990       0.00000000    
  -2.52749991       0.00000000    
  -2.45499992       0.00000000    
  -2.38249993       0.00000000    
  -2.30999994       0.00000000    
  -2.23749995       0.00000000    
  -2.16499996       0.00000000    
  -2.09249997       0.00000000    
  -2.01999998       0.00000000    
  -1.94749999       0.00000000    
  -1.87500000       0.00000000    
  -1.80250001       0.00000000    
  -1.73000002       0.00000000    
  -1.65750003       0.00000000    
  -1.58500004       0.00000000    
  -1.51250005       0.00000000    
  -1.44000006       0.00000000    
  -1.36749995       0.00000000    
  -1.29499996       0.00000000    
  -1.22249997       0.00000000    
  -1.14999998       0.00000000    
  -1.07749999       0.00000000    
  -1.00500000       0.00000000    
 -0.932500005       0.00000000    
 -0.860000014       0.00000000    
 -0.787500024       0.00000000    
 -0.714999974       0.00000000    
 -0.642499983       0.00000000    
 -0.569999993       0.00000000    
 -0.497500002       0.00000000    
 -0.425000012       0.00000000    
 -0.352499992       0.00000000    
 -0.280000001       0.00000000    
 -0.207499996       0.00000000    
 -0.135000005       0.00000000    
  -6.25000000E-02   0.00000000    
   9.99999978E-03   0.00000000    
   8.25000033E-02   0.00000000    
  0.155000001       0.00000000    
  0.227500007       0.00000000    
  0.300000012       0.00000000    
  0.372500002       0.00000000    
  0.444999993       0.00000000    
  0.517499983       0.00000000    
  0.589999974       0.00000000    
  0.662500024       0.00000000    
  0.735000014       0.00000000    
  0.807500005       0.00000000    
  0.879999995       0.00000000    
  0.952499986       0.00000000    
   1.02499998       0.00000000    
   1.09749997       0.00000000    
   1.16999996       0.00000000    
   1.24249995       0.00000000    
   1.31500006       0.00000000    
   1.38750005       0.00000000    
   1.46000004       0.00000000    
   1.53250003       0.00000000    
   1.60500002       0.00000000    
   1.67750001       0.00000000    
   1.75000000       0.00000000    
   1.82249999       0.00000000    
   1.89499998       0.00000000    
   1.96749997       0.00000000    
   2.03999996      -0.00000000    
   2.11249995      -0.00000000    
   2.18499994       0.00000000    
   2.25749993       0.00000000    
   2.32999992       0.00000000    
   2.40249991      -0.00000000    
   2.47499990      -3.36795107E-38
   2.54749990      -2.40870791E-38
   2.61999989       1.86038054E-37
   2.69250011       4.88096828E-37
   2.76500010       1.84786740E-37
   2.83750010      -1.82439231E-36
   2.91000009      -5.62926767E-36
   2.98250008      -3.71926047E-36
   3.05500007       1.92908667E-35
   3.12750006       6.64229613E-35
   3.20000005       7.79780708E-35
   3.27250004      -9.75988164E-35
   3.34500003      -5.57121920E-34
   3.41750002      -9.44283428E-34
   3.49000001      -2.75275666E-35
   3.56250000       3.67059462E-33
   3.63499999       8.93386066E-33
   3.70749998       7.49414309E-33
   3.77999997      -1.52949492E-32
   3.85249996      -6.36230557E-32
   3.92499995      -9.57644450E-32
   3.99749994      -1.82824949E-33
   4.07000017       3.27406468E-31
   4.14249992       7.73433717E-31
   4.21500015       7.07213983E-31
   4.28749990      -9.13280399E-31
   4.36000013      -4.43222947E-30
   4.43249989      -7.33378174E-30
   4.50500011      -2.87108063E-30
   4.57749987       1.63884105E-29
   4.65000010       4.66099993E-29
   4.72249985       5.68696538E-29
   4.79500008      -1.05770034E-29
   4.86749983      -1.93826950E-28
   4.94000006      -4.10360975E-28
   5.01249981      -3.68096972E-28
   5.08500004       3.45900966E-28
   5.15749979       1.82693098E-27
   5.23000002       3.14525796E-27
   5.30249977       2.00154850E-27
   5.37500000      -4.12952776E-27
   5.44750023      -1.46370321E-26
   5.51999998      -2.15528370E-26
   5.59250021      -9.18746391E-27
   5.66499996       3.59221464E-26
   5.73750019       1.02989014E-25
   5.80999994       1.35053381E-25
   5.88250017       3.67357979E-26
   5.95499992      -2.56270438E-25
   6.02750015      -6.49852126E-25
   6.09999990      -7.89526211E-25
   6.17250013      -1.46223331E-25
   6.24499989       1.56796400E-24
   6.31750011       3.73155071E-24
   6.38999987       4.37180679E-24
   6.46250010       7.55089030E-25
   6.53499985      -8.40434896E-24
   6.60750008      -1.96869831E-23
   6.67999983      -2.30944016E-23
   6.75250006      -5.27476144E-24
   6.82499981       3.98071298E-23
   6.89750004       9.58723863E-23
   6.96999979       1.16240169E-22
   7.04250002       3.88489446E-23
   7.11499977      -1.66201002E-22
   7.18750000      -4.30919296E-22
   7.26000023      -5.53527869E-22
   7.33249998      -2.59700280E-22
   7.40500021       6.00801565E-22
   7.47749996       1.77992223E-21
   7.55000019       2.47058553E-21
   7.62249994       1.52580966E-21
   7.69500017      -1.78634722E-21
   7.76749992      -6.69867339E-21
   7.84000015      -1.02390864E-20
   7.91249990      -7.90328101E-21
   7.98500013       3.66681572E-21
   8.05749989       2.26442034E-20
   8.13000011       3.90464049E-20
   8.20250034       3.63797103E-20
   8.27499962       3.50880130E-22
   8.34749985      -6.70346264E-20
   8.42000008      -1.35666732E-19
   8.49250031      -1.49655248E-19
   8.56499958      -5.29876875E-20
   8.63749981       1.64627954E-19
   8.71000004       4.23902457E-19
   8.78250027       5.51157938E-19
   8.85499954       3.45330483E-19
   8.92749977      -2.84150809E-19
   9.00000000      -1.16624422E-18
   9.07250023      -1.81231571E-18
   9.14500046      -1.56469526E-18
   9.21749973       2.35926467E-20
   9.28999996       2.70946112E-18
   9.36250019       5.27430087E-18
   9.43500042       5.77185332E-18
   9.50749969       2.47063236E-18
   9.57999992      -4.75709047E-18
   9.65250015      -1.33275630E-17
   9.72500038      -1.80883439E-17
   9.79749966      -1.33663189E-17
   9.86999989       3.39313272E-18
   9.94250011       2.80152706E-17
   10.0150003       4.85370095E-17
   10.0874996       4.88665748E-17
   10.1599998       1.72746712E-17
   10.2325001      -4.34009855E-17
   10.3050003      -1.09758516E-16
   10.3774996      -1.42210691E-16
   10.4499998      -1.02159671E-16
   10.5225000       2.28035001E-17
   10.5950003       1.97969612E-16
   10.6674995       3.40235427E-16
   10.7399998       3.46504265E-16
   10.8125000       1.47655564E-16
   10.8850002      -2.33778949E-16
   10.9575005      -6.55885881E-16
   11.0299997      -8.89278186E-16
   11.1025000      -7.14659538E-16
   11.1750002      -5.52342178E-17
   11.2475004       9.19801760E-16
   11.3199997       1.79239964E-15
   11.3924999       2.03404438E-15
   11.4650002       1.25977146E-15
   11.5375004      -5.03295860E-16
   11.6099997      -2.67841919E-15
   11.6824999      -4.25544694E-15
   11.7550001      -4.18375450E-15
   11.8275003      -1.91949694E-15
   11.8999996       2.11915510E-15
   11.9724998       6.46164717E-15
   12.0450001       9.01756951E-15
   12.1175003       7.95669378E-15
   12.1899996       2.70427550E-15
   12.2624998      -5.42766600E-15
   12.3350000      -1.33834272E-14
   12.4075003      -1.73932541E-14
   12.4799995      -1.45822278E-14
   12.5524998      -4.50421459E-15
   12.6250000       1.01370802E-14
   12.6975002       2.40551326E-14
   12.7700005       3.11843650E-14
   12.8424997       2.71042395E-14
   12.9150000       1.11275489E-14
   12.9875002      -1.28459204E-14
   13.0600004      -3.71651020E-14
   13.1324997      -5.27640709E-14
   13.2049999      -5.22394390E-14
   13.2775002      -3.26352037E-14
   13.3500004       2.99422208E-15
   13.4224997       4.57681039E-14
   13.4949999       8.29123147E-14
   13.5675001       1.00983668E-13
   13.6400003       8.96502788E-14
   13.7124996       4.52111120E-14
   13.7849998      -2.69105078E-14
   13.8575001      -1.11372947E-13
   13.9300003      -1.84416732E-13
   14.0024996      -2.18132031E-13
   14.0749998      -1.87620115E-13
   14.1475000      -8.03720561E-14
   14.2200003       9.41531534E-14
   14.2924995       2.98326847E-13
   14.3649998       4.68040212E-13
   14.4375000       5.25978512E-13
   14.5100002       4.06786041E-13
   14.5825005       8.87957649E-14
   14.6549997      -3.78948338E-13
   14.7275000      -8.68738512E-13
   14.8000002      -1.19687170E-12
   14.8725004      -1.17876466E-12
   14.9449997      -7.04045221E-13
   15.0174999       1.94117644E-13
   15.0900002       1.30668078E-12
   15.1625004       2.27766439E-12
   15.2349997       2.69939995E-12
   15.3074999       2.25344244E-12
   15.3800001       8.53945549E-13
   15.4525003      -1.25968214E-12
   15.5249996      -3.52598159E-12
   15.5974998      -5.18028849E-12
   15.6700001      -5.47295239E-12
   15.7425003      -3.93407919E-12
   15.8149996      -6.05786471E-13
   15.8874998       3.84340042E-12
   15.9600000       8.18821053E-12
   16.0324993       1.09216048E-11
   16.1049995       1.06930523E-11
   16.1774998       6.80259104E-12
   16.2500000      -4.02375453E-13
   16.3225002      -9.38421563E-12
   16.3950005      -1.76328084E-11
   16.4675007      -2.22529790E-11
   16.5400009      -2.08110508E-11
   16.6124992      -1.22254021E-11
   16.6849995       2.56777043E-12
   16.7574997       2.04240375E-11
   16.8299999       3.64348170E-11
   16.9025002       4.50169728E-11
   16.9750004       4.14803226E-11
   17.0475006       2.37294004E-11
   17.1200008      -6.37831151E-12
   17.1924992      -4.25374597E-11
   17.2649994      -7.47802723E-11
   17.3374996      -9.16802190E-11
   17.4099998      -8.36765310E-11
   17.4825001      -4.67331659E-11
   17.5550003       1.48256650E-11
   17.6275005       8.75204978E-11
   17.7000008       1.50798776E-10
   17.7724991       1.82028004E-10
   17.8449993       1.63408578E-10
   17.9174995       8.89081517E-11
   17.9899998      -3.11064507E-11
   18.0625000      -1.69557285E-10
   18.1350002      -2.87629587E-10
   18.2075005      -3.44449136E-10
   18.2800007      -3.09282377E-10
   18.3525009      -1.72942605E-10
   18.4249992       4.51903029E-11
   18.4974995       2.97372016E-10
   18.5699997       5.16082566E-10
   18.6424999       6.29954866E-10
   18.7150002       5.83773085E-10
   18.7875004       3.57606555E-10
   18.8600006      -2.04627010E-11
   18.9325008      -4.72808015E-10
   19.0049992      -8.84533446E-10
   19.0774994      -1.12884913E-09
   19.1499996      -1.10100551E-09
   19.2224998      -7.52845397E-10
   19.2950001      -1.18149768E-10
   19.3675003       6.80475287E-10
   19.4400005       1.44897017E-09
   19.5125008       1.96330707E-09
   19.5849991       2.02778527E-09
   19.6574993       1.53642588E-09
   19.7299995       5.20211874E-10
   19.8024998      -8.36135605E-10
   19.8750000      -2.21821361E-09
   19.9475002      -3.24715943E-09
   20.0200005      -3.57454688E-09
   20.0925007      -2.98499780E-09
   20.1650009      -1.47871249E-09
   20.2374992       6.92645274E-10
   20.3099995       3.05418668E-09
   20.3824997       5.00216135E-09
   20.4549999       5.94805849E-09
   20.5275002       5.47978374E-09
   20.6000004       3.49807316E-09
   20.6725006       2.87817048E-10
   20.7450008      -3.50309248E-09
   20.8174992      -6.98296532E-09
   20.8899994      -9.21382082E-09
   20.9624996      -9.44517797E-09
   21.0349998      -7.32889083E-09
   21.1075001      -3.05928660E-09
   21.1800003       2.60427990E-09
   21.2525005       8.45150261E-09
   21.3250008       1.30605606E-08
   21.3974991       1.51207136E-08
   21.4699993       1.37705634E-08
   21.5424995       8.87121043E-09
   21.6149998       1.13739118E-09
   21.6875000      -7.92648969E-09
   21.7600002      -1.62965659E-08
   21.8325005      -2.18646612E-08
   21.9050007      -2.29473773E-08
   21.9775009      -1.87466132E-08
   22.0499992      -9.63827862E-09
   22.1224995       2.79987944E-09
   22.1949997       1.60488813E-08
   22.2674999       2.71529377E-08
   22.3400002       3.33614381E-08
   22.4125004       3.27674385E-08
   22.4850006       2.48009489E-08
   22.5575008       1.04648681E-08
   22.6299992      -7.74828912E-09
   22.7024994      -2.62614464E-08
   22.7749996      -4.10816021E-08
   22.8474998      -4.86182330E-08
   22.9200001      -4.64950567E-08
   22.9925003      -3.41797417E-08
   23.0650005      -1.32735458E-08
   23.1375008       1.26378605E-08
   23.2099991       3.85775749E-08
   23.2824993       5.91147717E-08
   23.3549995       6.94609597E-08
   23.4274998       6.65007178E-08
   23.5000000       4.95471042E-08
   23.5725002       2.06699564E-08
   23.6450005      -1.54767061E-08
   23.7175007      -5.23242605E-08
   23.7900009      -8.24811011E-08
   23.8624992      -9.91027846E-08
   23.9349995      -9.73270389E-08
   24.0074997      -7.54992513E-08
   24.0799999      -3.58936276E-08
   24.1525002       1.53122244E-08
   24.2250004       6.89102464E-08
   24.2975006       1.14279985E-07
   24.3700008       1.41446478E-07
   24.4424992       1.43145670E-07
   24.5149994       1.16459901E-07
   24.5874996       6.36982733E-08
   24.6599998      -7.63106023E-09
   24.7325001      -8.57477858E-08
   24.8050003      -1.56307507E-07
   24.8775005      -2.04708357E-07
   24.9500008      -2.18745569E-07
   25.0224991      -1.91252667E-07
   25.0949993      -1.22235321E-07
   25.1674995      -1.99235846E-08
   25.2399998       9.97489948E-08
   25.3125000       2.15433445E-07
   25.3850002       3.04152309E-07
   25.4575005       3.45842551E-07
   25.5300007       3.27621933E-07
   25.6025009       2.46772515E-07
   25.6749992       1.11773119E-07
   25.7474995      -5.87766706E-08
   25.8199997      -2.39017822E-07
   25.8924999      -3.99860340E-07
   25.9650002      -5.13486043E-07
   26.0375004      -5.57697490E-07
   26.1100006      -5.19571927E-07
   26.1825008      -3.97923259E-07
   26.2549992      -2.04111473E-07
   26.3274994       3.91289454E-08
   26.3999996       3.00862922E-07
   26.4724998       5.46698914E-07
   26.5450001       7.44215527E-07
   26.6175003       8.67920278E-07
   26.6900005       9.02663601E-07
   26.7625008       8.44828946E-07
   26.8349991       7.01201657E-07
   26.9074993       4.85971441E-07
   26.9799995       2.16671182E-07
   27.0524998      -9.00507828E-08
   27.1250000      -4.22029473E-07
   27.1975002      -7.73954753E-07
   27.2700005      -1.14812349E-06
   27.3425007      -1.55338410E-06
   27.4150009      -2.00232421E-06
   27.4874992      -2.50703783E-06
   27.5599995      -3.07414530E-06
   27.6324997      -3.69999384E-06
   27.7049999      -4.36710570E-06
   27.7775002      -5.04283253E-06
   27.8500004      -5.68086807E-06
   27.9225006      -6.22577227E-06
   27.9950008      -6.62007142E-06
   28.0674992      -6.81292158E-06
   28.1399994      -6.76885975E-06
   28.2124996      -6.47497291E-06
   28.2849998      -5.94496350E-06
   28.3575001      -5.21913807E-06
   28.4300003      -4.36017945E-06
   28.5025005      -3.44545242E-06
   28.5750008      -2.55723694E-06
   28.6474991      -1.77254640E-06
   28.7199993      -1.15398200E-06
   28.7924995      -7.42647160E-07
   28.8649998      -5.53724078E-07
   28.9375000      -5.75057129E-07
   29.0100002      -7.68976747E-07
   29.0825005      -1.07743870E-06
   29.1550007      -1.43016291E-06
   29.2275009      -1.75481262E-06
   29.2999992      -1.98761131E-06
   29.3724995      -2.08247025E-06
   29.4449997      -2.01696344E-06
   29.5174999      -1.79430060E-06
   29.5900002      -1.44147577E-06
   29.6625004      -1.00456248E-06
   29.7350006      -5.42374607E-07
   29.8075008      -1.19459642E-07
   29.8799992       2.01064466E-07
   29.9524994       3.64588203E-07
   30.0249996       3.31675011E-07
   30.0974998       8.36443235E-08
   30.1700001      -3.73847030E-07
   30.2425003      -1.01005787E-06
   30.3150005      -1.77160086E-06
   30.3875008      -2.58779187E-06
   30.4599991      -3.37818142E-06
   30.5324993      -4.06138815E-06
   30.6049995      -4.56443922E-06
   30.6774998      -4.83184294E-06
   30.7500000      -4.83339591E-06
   30.8225002      -4.56936687E-06
   30.8950005      -4.07155039E-06
   30.9675007      -3.39914027E-06
   31.0400009      -2.62952767E-06
   31.1124992      -1.84563498E-06
   31.1849995      -1.12259022E-06
   31.2574997      -5.16843841E-07
   31.3299999      -6.00060304E-08
   31.4025002       2.41815002E-07
   31.4750004       4.03928567E-07
   31.5475006       4.55909515E-07
   31.6200008       4.33233623E-07
   31.6924992       3.69239700E-07
   31.7649994       2.88608419E-07
   31.8374996       2.03380239E-07
   31.9099998       1.12405019E-07
   31.9825001       4.66091299E-09
   32.0550003      -1.34069936E-07
   32.1274986      -3.12888289E-07
   32.2000008      -5.28409259E-07
   32.2724991      -7.60871558E-07
   32.3450012      -9.75201601E-07
   32.4174995      -1.12689179E-06
   32.4900017      -1.17113018E-06
   32.5625000      -1.07292772E-06
   32.6349983      -8.16072145E-07
   32.7075005      -4.09222281E-07
   32.7799988       1.12062395E-07
   32.8525009       6.88183150E-07
   32.9249992       1.24350652E-06
   32.9975014       1.69873465E-06
   33.0699997       1.98547627E-06
   33.1425018       2.05971105E-06
   33.2150002       1.91069262E-06
   33.2874985       1.56299552E-06
   33.3600006       1.07151550E-06
   33.4324989       5.11275232E-07
   33.5050011      -3.50612233E-08
   33.5774994      -4.89333729E-07
   33.6500015      -7.88180103E-07
   33.7224998      -8.91037416E-07
   33.7949982      -7.85765394E-07
   33.8675003      -4.91383844E-07
   33.9399986      -5.68299434E-08
   34.0125008       4.45370233E-07
   34.0849991       9.30703777E-07
   34.1575012       1.31810873E-06
   34.2299995       1.54620534E-06
   34.3025017       1.58642126E-06
   34.3750000       1.44947739E-06
   34.4474983       1.18320111E-06
   34.5200005       8.61870149E-07
   34.5924988       5.69544795E-07
   34.6650009       3.81419909E-07
   34.7374992       3.47645255E-07
   34.8100014       4.83172869E-07
   34.8824997       7.65360767E-07
   34.9550018       1.13901604E-06
   35.0275002       1.52702614E-06
   35.0999985       1.84412011E-06
   35.1725006       2.01153603E-06
   35.2449989       1.97085478E-06
   35.3175011       1.69556142E-06
   35.3899994       1.19883578E-06
   35.4625015       5.35931690E-07
   35.5349998      -2.00230261E-07
   35.6074982      -8.90708634E-07
   35.6800003      -1.40841473E-06
   35.7524986      -1.63969219E-06
   35.8250008      -1.50593576E-06
   35.8974991      -9.81127073E-07
   35.9700012      -1.01490066E-07
   36.0424995       1.03545358E-06
   36.1150017       2.28323734E-06
   36.1875000       3.46856086E-06
   36.2599983       4.41897510E-06
   36.3325005       4.99036605E-06
   36.4049988       5.08855874E-06
   36.4775009       4.68139297E-06
   36.5499992       3.80063966E-06
   36.6225014       2.53576400E-06
   36.6949997       1.02255535E-06
   36.7675018      -5.71207011E-07
   36.8400002      -2.06234222E-06
   36.9124985      -3.27123053E-06
   36.9850006      -4.04251023E-06
   37.0574989      -4.26510042E-06
   37.1300011      -3.88789522E-06
   37.2024994      -2.92782829E-06
   37.2750015      -1.46913305E-06
   37.3474998       3.44994220E-07
   37.4199982       2.32599405E-06
   37.4925003       4.25724602E-06
   37.5649986       5.91505204E-06
   37.6375008       7.09374308E-06
   37.7099991       7.63358548E-06
   37.7825012       7.44697581E-06
   37.8549995       6.53611914E-06
   37.9275017       4.99621956E-06
   38.0000000       3.00238389E-06
   38.0724983       7.83860969E-07
   38.1450005      -1.40737461E-06
   38.2174988      -3.32705622E-06
   38.2900009      -4.76482728E-06
   38.3624992      -5.56627265E-06
   38.4350014      -5.65138907E-06
   38.5074997      -5.02759212E-06
   38.5800018      -3.79221933E-06
   38.6525002      -2.11930183E-06
   38.7249985      -2.29542707E-07
   38.7975006       1.65070560E-06
   38.8699989       3.33017397E-06
   38.9425011       4.68122880E-06
   39.0149994       5.64911716E-06
   39.0875015       6.24220229E-06
   39.1599998       6.50960465E-06
   39.2324982       6.51495429E-06
   39.3050003       6.31365265E-06
   39.3774986       5.93813684E-06
   39.4500008       5.39312350E-06
   39.5224991       4.66099937E-06
   39.5950012       3.71585270E-06
   39.6674995       2.54258589E-06
   39.7400017       1.15586431E-06
   39.8125000      -3.86493383E-07
   39.8849983      -1.97915188E-06
   39.9575005      -3.47464561E-06
   40.0299988      -4.69746738E-06
   40.1025009      -5.46576302E-06
   40.1749992      -5.61999650E-06
   40.2475014      -5.05662683E-06
   40.3199997      -3.76093044E-06
   40.3925018      -1.82873919E-06
   40.4650002       5.33932109E-07
   40.5374985       3.03899492E-06
   40.6100006       5.36753851E-06
   40.6824989       7.22991945E-06
   40.7550011       8.41699239E-06
   40.8274994       8.82957920E-06
   40.9000015       8.48301897E-06
   40.9724998       7.49203082E-06
   41.0449982       6.04391653E-06
   41.1175003       4.36577966E-06
   41.1899986       2.68831741E-06
   41.2625008       1.20878178E-06
   41.3349991       5.90721392E-08
   41.4075012      -7.12260601E-07
   41.4799995      -1.13717022E-06
   41.5525017      -1.30454703E-06
   41.6250000      -1.32432729E-06
   41.6974983      -1.29200384E-06
   41.7700005      -1.26408713E-06
   41.8424988      -1.24870917E-06
   41.9150009      -1.20968139E-06
   41.9874992      -1.08004178E-06
   42.0600014      -7.81775498E-07