  -20.0000000       0.00000000    
  -19.9274998       0.00000000    
  -19.8549995       0.00000000    
  -19.7824993       0.00000000    
  -19.7099991       0.00000000    
  -19.6375008       0.00000000    
  -19.5650005       0.00000000    
  -19.4925003       0.00000000    
  -19.4200001       0.00000000    
  -19.3474998       0.00000000    
  -19.2749996       0.00000000    
  -19.2024994       0.00000000    
  -19.1299992       0.00000000    
  -19.0575008       0.00000000    
  -18.9850006       0.00000000    
  -18.9125004       0.00000000    
  -18.8400002       0.00000000    
  -18.7674999       0.00000000    
  -18.6949997       0.00000000    
  -18.6224995       0.00000000    
  -18.5499992       0.00000000    
  -18.4775009       0.00000000    
  -18.4050007       0.00000000    
  -18.3325005       0.00000000    
  -18.2600002       0.00000000    
  -18.1875000       0.00000000    
  -18.1149998       0.00000000    
  -18.0424995       0.00000000    
  -17.9699993       0.00000000    
  -17.8974991       0.00000000    
  -17.8250008       0.00000000    
  -17.7525005       0.00000000    
  -17.6800003       0.00000000    
  -17.6075001       0.00000000    
  -17.5349998       0.00000000    
  -17.4624996       0.00000000    
  -17.3899994       0.00000000    
  -17.3174992       0.00000000    
  -17.2450008       0.00000000    
  -17.1725006       0.00000000    
  -17.1000004       0.00000000    
  -17.0275002       0.00000000    
  -16.9549999       0.00000000    
  -16.8824997       0.00000000    
  -16.8099995       0.00000000    
  -16.7374992       0.00000000    
  -16.6650009       0.00000000    
  -16.5925007       0.00000000    
  -16.5200005       0.00000000    
  -16.4475002       0.00000000    
  -16.3750000       0.00000000    
  -16.3024998       0.00000000    
  -16.2299995       0.00000000    
  -16.1574993       0.00000000    
  -16.0849991       0.00000000    
  -16.0125008       0.00000000    
  -15.9399996       0.00000000    
  -15.8675003       0.00000000    
  -15.7950001       0.00000000    
  -15.7224998       0.00000000    
  -15.6499996       0.00000000    
  -15.5775003       0.00000000    
  -15.5050001       0.00000000    
  -15.4324999       0.00000000    
  -15.3599997       0.00000000    
  -15.2875004       0.00000000    
  -15.2150002       0.00000000    
  -15.1424999       0.00000000    
  -15.0699997       0.00000000    
  -14.9975004       0.00000000    
  -14.9250002       0.00000000    
  -14.8525000       0.00000000    
  -14.7799997       0.00000000    
  -14.7075005       0.00000000    
  -14.6350002       0.00000000    
  -14.5625000       0.00000000    
  -14.4899998       0.00000000    
  -14.4174995       0.00000000    
  -14.3450003       0.00000000    
  -14.2725000       0.00000000    
  -14.1999998       0.00000000    
  -14.1274996       0.00000000    
  -14.0550003       0.00000000    
  -13.9825001       0.00000000    
  -13.9099998       0.00000000    
  -13.8374996       0.00000000    
  -13.7650003       0.00000000    
  -13.6925001       0.00000000    
  -13.6199999       0.00000000    
  -13.5474997       0.00000000    
  -13.4750004       0.00000000    
  -13.4025002       0.00000000    
  -13.3299999       0.00000000    
  -13.2574997       0.00000000    
  -13.1850004       0.00000000    
  -13.1125002       0.00000000    
  -13.0400000       0.00000000    
  -12.9674997       0.00000000    
  -12.8950005       0.00000000    
  -12.8225002       0.00000000    
  -12.7500000       0.00000000    
  -12.6774998       0.00000000    
  -12.6049995       0.00000000    
  -12.5325003       0.00000000    
  -12.4600000       0.00000000    
  -12.3874998       0.00000000    
  -12.3149996       0.00000000    
  -12.2425003       0.00000000    
  -12.1700001       0.00000000    
  -12.0974998       0.00000000    
  -12.0249996       0.00000000    
  -11.9525003       0.00000000    
  -11.8800001       0.00000000    
  -11.8074999       0.00000000    
  -11.7349997       0.00000000    
  -11.6625004       0.00000000    
  -11.5900002       0.00000000    
  -11.5174999       0.00000000    
  -11.4449997       0.00000000    
  -11.3725004       0.00000000    
  -11.3000002       0.00000000    
  -11.2275000       0.00000000    
  -11.1549997       0.00000000    
  -11.0825005       0.00000000    
  -11.0100002       0.00000000    
  -10.9375000       0.00000000    
  -10.8649998       0.00000000    
  -10.7924995       0.00000000    
  -10.7200003       0.00000000    
  -10.6475000       0.00000000    
  -10.5749998       0.00000000    
  -10.5024996       0.00000000    
  -10.4300003       0.00000000    
  -10.3575001       0.00000000    
  -10.2849998       0.00000000    
  -10.2124996       0.00000000    
  -10.1400003       0.00000000    
  -10.0675001       0.00000000    
  -9.99499989       0.00000000    
  -9.92249966       0.00000000    
  -9.85000038       0.00000000    
  -9.77750015       0.00000000    
  -9.70499992       0.00000000    
  -9.63249969       0.00000000    
  -9.56000042       0.00000000    
  -9.48750019       0.00000000    
  -9.41499996       0.00000000    
  -9.34249973       0.00000000    
  -9.27000046       0.00000000    
  -9.19750023       0.00000000    
  -9.12500000       0.00000000    
  -9.05249977       0.00000000    
  -8.97999954       0.00000000    
  -8.90750027       0.00000000    
  -8.83500004       0.00000000    
  -8.76249981       0.00000000    
  -8.68999958       0.00000000    
  -8.61750031       0.00000000    
  -8.54500008       0.00000000    
  -8.47249985       0.00000000    
  -8.39999962       0.00000000    
  -8.32750034       0.00000000    
  -8.25500011       0.00000000    
  -8.18249989       0.00000000    
  -8.10999966       0.00000000    
  -8.03750038       0.00000000    
  -7.96500015       0.00000000    
  -7.89249992       0.00000000    
  -7.82000017       0.00000000    
  -7.74749994       0.00000000    
  -7.67500019       0.00000000    
  -7.60249996       0.00000000    
  -7.53000021       0.00000000    
  -7.45749998       0.00000000    
  -7.38500023       0.00000000    
  -7.31250000       0.00000000    
  -7.23999977       0.00000000    
  -7.16750002       0.00000000    
  -7.09499979       0.00000000    
  -7.02250004       0.00000000    
  -6.94999981       0.00000000    
  -6.87750006       0.00000000    
  -6.80499983       0.00000000    
  -6.73250008       0.00000000    
  -6.65999985       0.00000000    
  -6.58750010       0.00000000    
  -6.51499987       0.00000000    
  -6.44250011       0.00000000    
  -6.36999989       0.00000000    
  -6.29750013       0.00000000    
  -6.22499990       0.00000000    
  -6.15250015       0.00000000    
  -6.07999992       0.00000000    
  -6.00750017       0.00000000    
  -5.93499994       0.00000000    
  -5.86250019       0.00000000    
  -5.78999996       0.00000000    
  -5.71750021       0.00000000    
  -5.64499998       0.00000000    
  -5.57250023       0.00000000    
  -5.50000000       0.00000000    
  -5.42749977       0.00000000    
  -5.35500002       0.00000000    
  -5.28249979       0.00000000    
  -5.21000004       0.00000000    
  -5.13749981       0.00000000    
  -5.06500006       0.00000000    
  -4.99249983       0.00000000    
  -4.92000008       0.00000000    
  -4.84749985       0.00000000    
  -4.77500010       0.00000000    
  -4.70249987       0.00000000    
  -4.63000011       0.00000000    
  -4.55749989       0.00000000    
  -4.48500013       0.00000000    
  -4.41249990       0.00000000    
  -4.34000015       0.00000000    
  -4.26749992       0.00000000    
  -4.19500017       0.00000000    
  -4.12249994       0.00000000    
  -4.05000019       0.00000000    
  -3.97749996       0.00000000    
  -3.90499997       0.00000000    
  -3.83249998       0.00000000    
  -3.75999999       0.00000000    
  -3.68750000       0.00000000    
  -3.61500001       0.00000000    
  -3.54250002       0.00000000    
  -3.47000003       0.00000000    
  -3.39750004       0.00000000    
  -3.32500005       0.00000000    
  -3.25250006       0.00000000    
  -3.18000007       0.00000000    
  -3.10750008       0.00000000    
  -3.03500009       0.00000000    
  -2.96250010       0.00000000    
  -2.89000010       0.00000000    
  -2.81750011       0.00000000    
  -2.74499989       0.00000000    
  -2.67249990       0.00000000    
  -2.59999990       0.00000000    
  -2.52749991       0.00000000    
  -2.45499992       0.00000000    
  -2.38249993       0.00000000    
  -2.30999994       0.00000000    
  -2.23749995       0.00000000    
  -2.16499996       0.00000000    
  -2.09249997       0.00000000    
  -2.01999998       0.00000000    
  -1.94749999       0.00000000    
  -1.87500000       0.00000000    
  -1.80250001       0.00000000    
  -1.73000002       0.00000000    
  -1.65750003       0.00000000    
  -1.58500004       0.00000000    
  -1.51250005       0.00000000    
  -1.44000006       0.00000000    
  -1.36749995       0.00000000    
  -1.29499996       0.00000000    
  -1.22249997       0.00000000    
  -1.14999998       0.00000000    
  -1.07749999       0.00000000    
  -1.00500000       0.00000000    
 -0.932500005       0.00000000    
 -0.860000014       0.00000000    
 -0.787500024       0.00000000    
 -0.714999974       0.00000000    
 -0.642499983       0.00000000    
 -0.569999993       0.00000000    
 -0.497500002       0.00000000    
 -0.425000012       0.00000000    
 -0.352499992       0.00000000    
 -0.280000001       0.00000000    
 -0.207499996       0.00000000    
 -0.135000005       0.00000000    
  -6.25000000E-02   0.00000000    
   9.99999978E-03   0.00000000    
   8.25000033E-02   0.00000000    
  0.155000001       0.00000000    
  0.227500007       0.00000000    
  0.300000012       0.00000000    
  0.372500002       0.00000000    
  0.444999993       0.00000000    
  0.517499983       0.00000000    
  0.589999974       0.00000000    
  0.662500024       0.00000000    
  0.735000014       0.00000000    
  0.807500005       0.00000000    
  0.879999995       0.00000000    
  0.952499986       0.00000000    
   1.02499998       0.00000000    
   1.09749997       0.00000000    
   1.16999996       0.00000000    
   1.24249995       0.00000000    
   1.31500006       0.00000000    
   1.38750005       0.00000000    
   1.46000004       0.00000000    
   1.53250003       0.00000000    
   1.60500002       0.00000000    
   1.67750001       0.00000000    
   1.75000000       0.00000000    
   1.82249999       0.00000000    
   1.89499998       0.00000000    
   1.96749997       0.00000000    
   2.03999996      -0.00000000    
   2.11249995      -0.00000000    
   2.18499994      -0.00000000    
   2.25749993      -0.00000000    
   2.32999992       0.00000000    
   2.40249991       1.80081622E-38
   2.47499990       1.43776838E-38
   2.54749990      -1.00849242E-37
   2.61999989      -3.21183998E-37
   2.69250011      -1.60486879E-37
   2.76500010       1.48758087E-36
   2.83750010       4.55675894E-36
   2.91000009       3.47645638E-36
   2.98250008      -1.50629585E-35
   3.05500007      -5.95519271E-35
   3.12750006      -8.41419029E-35
   3.20000005       6.73570202E-35
   3.27250004       5.62636091E-34
   3.34500003       1.15529247E-33
   3.41750002       5.49901676E-34
   3.49000001      -3.40952467E-33
   3.56250000      -1.07965997E-32
   3.63499999      -1.34443464E-32
   3.70749998       8.43299280E-33
   3.77999997       7.16589761E-32
   3.85249996       1.44440620E-31
   3.92499995       9.23681420E-32
   3.99749994      -2.89094169E-31
   4.07000017      -1.01952421E-30
   4.14249992      -1.46083056E-30
   4.21500015      -7.08175396E-32
   4.28749990       4.65155076E-30
   4.36000013       1.12655670E-29
   4.43249989       1.17761077E-29
   4.50500011      -7.67793790E-30
   4.57749987      -5.44856896E-29
   4.65000010      -1.04023051E-28
   4.72249985      -7.85807704E-29
   4.79500008       1.26171426E-28
   4.86749983       5.22578990E-28
   4.94000006       8.42197513E-28
   5.01249981       4.46802121E-28
   5.08500004      -1.35047132E-27
   5.15749979      -4.33621971E-27
   5.23000002      -6.17252381E-27
   5.30249977      -2.23103057E-27
   5.37500000       1.15558593E-26
   5.44750023       3.20481923E-26
   5.51999998       4.17768748E-26
   5.59250021       1.04071507E-26
   5.66499996      -8.41931276E-26
   5.73750019      -2.14232583E-25
   5.80999994      -2.64298922E-25
   5.88250017      -5.22627745E-26
   5.95499992       5.35397875E-25
   6.02750015       1.30578292E-24
   6.09999990       1.57455739E-24
   6.17250013       3.29499681E-25
   6.24499989      -2.99840074E-24
   6.31750011      -7.28903453E-24
   6.38999987      -8.86599036E-24
   6.46250010      -2.47149471E-24
   6.53499985       1.47821095E-23
   6.60750008       3.73365027E-23
   6.67999983       4.71700009E-23
   6.75250006       1.85621858E-23
   6.82499981      -6.34907631E-23
   6.89750004      -1.75383091E-22
   6.96999979      -2.36121240E-22
   7.04250002      -1.26789423E-22
   7.11499977       2.30734267E-22
   7.18750000       7.52435878E-22
   7.26000023       1.10416899E-21
   7.33249998       7.67103288E-22
   7.40500021      -6.52338441E-22
   7.47749996      -2.92213487E-21
   7.55000019      -4.78147633E-21
   7.62249994      -4.10647393E-21
   7.69500017       9.67487388E-22
   7.76749992       1.01002170E-20
   7.84000015       1.89866821E-20
   7.91249990       1.95378025E-20
   7.98500013       3.58528391E-21
   8.05749989      -3.00437201E-20
   8.13000011      -6.83358461E-20
   8.20250034      -8.29176315E-20
   8.27499962      -4.09910063E-20
   8.34749985       7.08430628E-20
   8.42000008       2.19366851E-19
   8.49250031       3.14064245E-19
   8.56499958       2.34865812E-19
   8.63749981      -9.43983879E-20
   8.71000004      -6.11139493E-19
   8.78250027      -1.05739894E-18
   8.85499954      -1.03454021E-18
   8.92749977      -2.07483613E-19
   9.00000000       1.39253581E-18
   9.07250023       3.12923460E-18
   9.14500046       3.81198451E-18
   9.21749973       2.19533962E-18
   9.28999996      -2.14248340E-18
   9.36250019      -7.93820997E-18
   9.43500042      -1.20383457E-17
   9.50749969      -1.04194532E-17
   9.57999992      -4.78114737E-19
   9.65250015       1.62432746E-17
   9.72500038       3.25443856E-17
   9.79749966       3.70566128E-17
   9.86999989       1.94918907E-17
   9.94250011      -2.17440637E-17
   10.0150003      -7.33874904E-17
   10.0874996      -1.07583825E-16
   10.1599998      -9.20040901E-17
   10.2325001      -8.51096058E-18
   10.3050003       1.27293210E-16
   10.3774996       2.57930347E-16
   10.4499998       2.98536895E-16
   10.5225000       1.76253567E-16
   10.5950003      -1.18047700E-16
   10.6674995      -4.92233504E-16
   10.7399998      -7.59842181E-16
   10.8125000      -7.08164543E-16
   10.8850002      -2.14018491E-16
   10.9575005       6.41409505E-16
   11.0299997       1.52797872E-15
   11.1025000       1.94914055E-15
   11.1750002       1.45692780E-15
   11.2475004      -7.07572083E-17
   11.3199997      -2.22486269E-15
   11.3924999      -4.07739934E-15
   11.4650002      -4.48884348E-15
   11.5375004      -2.65168535E-15
   11.6099997       1.34190168E-15
   11.6824999       6.20991236E-15
   11.7550001       9.72456419E-15
   11.8275003       9.54730391E-15
   11.8999996       4.41413221E-15
   11.9724998      -4.83545910E-15
   12.0450001      -1.49750445E-14
   12.1175003      -2.12400474E-14
   12.1899996      -1.92284390E-14
   12.2624998      -7.20798949E-15
   12.3350000       1.22115181E-14
   12.4075003       3.20569987E-14
   12.4799995       4.30892369E-14
   12.5524998       3.75604902E-14
   12.6250000       1.32484576E-14
   12.6975002      -2.40799066E-14
   12.7700005      -6.12900166E-14
   12.8424997      -8.19802125E-14
   12.9150000      -7.29362182E-14
   12.9875002      -3.05488938E-14
   13.0600004       3.55876725E-14
   13.1324997       1.03911264E-13
   13.2049999       1.47249807E-13
   13.2775002       1.42552447E-13
   13.3500004       8.06901136E-14
   13.4224997      -2.74078296E-14
   13.4949999      -1.51096664E-13
   13.5675001      -2.47642889E-13
   13.6400003      -2.75459153E-13
   13.7124996      -2.09120712E-13
   13.7849998      -5.12516597E-14
   13.8575001       1.63184665E-13
   13.9300003       3.72664952E-13
   14.0024996       5.04424302E-13
   14.0749998       4.95731115E-13
   14.1475000       3.15492559E-13
   14.2200003      -1.98198205E-14
   14.2924995      -4.40761143E-13
   14.3649998      -8.32847409E-13
   14.4375000      -1.05857727E-12
   14.5100002      -9.92184091E-13
   14.5825005      -5.62860576E-13
   14.6549997       2.02350316E-13
   14.7275000       1.15042513E-12
   14.8000002       2.00712103E-12
   14.8725004       2.42985211E-12
   14.9449997       2.11073520E-12
   15.0174999       9.09459248E-13
   15.0900002      -1.02831155E-12
   15.1625004      -3.22419825E-12
   15.2349997      -4.93942907E-12
   15.3074999      -5.37756601E-12
   15.3800001      -3.97578932E-12
   15.4525003      -6.92678174E-13
   15.5249996       3.82342335E-12
   15.5974998       8.28293337E-12
   15.6700001       1.10567397E-11
   15.7425003       1.06801668E-11
   15.8149996       6.42316105E-12
   15.8874998      -1.26188643E-12
   15.9600000      -1.06006801E-11
   16.0324993      -1.87856918E-11
   16.1049995      -2.26926117E-11
   16.1774998      -1.98778442E-11
   16.2500000      -9.58052301E-12
   16.3225002       6.61274247E-12
   16.3950005       2.47440714E-11
   16.4675007       3.92529793E-11
   16.5400009       4.44516576E-11
   16.6124992       3.63657854E-11
   16.6849995       1.44132250E-11
   16.7574997      -1.76515365E-11
   16.8299999      -5.19683671E-11
   16.9025002      -7.81344156E-11
   16.9750004      -8.58849727E-11
   17.0475006      -6.83136048E-11
   17.1200008      -2.47872937E-11
   17.1924992       3.73772541E-11
   17.2649994       1.03266298E-10
   17.3374996       1.53142665E-10
   17.4099998       1.67407518E-10
   17.4825001       1.32776998E-10
   17.5550003       4.80404015E-11
   17.6275005      -7.25566968E-11
   17.7000008      -2.00018960E-10
   17.7724991      -2.96207697E-10
   17.8449993      -3.23727600E-10
   17.9174995      -2.57894067E-10
   17.9899998      -9.73825048E-11
   18.0625000       1.30146394E-10
   18.1350002       3.70287939E-10
   18.2075005       5.52892176E-10
   18.2800007       6.10133277E-10
   18.3525009       4.97487274E-10
   18.4249992       2.11851411E-10
   18.4974995      -1.99115918E-10
   18.5699997      -6.40813902E-10
   18.6424999      -9.90029281E-10
   18.7150002      -1.12520748E-09
   18.7875004      -9.62197100E-10
   18.8600006      -4.86199692E-10
   18.9325008       2.30061720E-10
   19.0049992       1.02991871E-09
   19.0774994       1.70129255E-09
   19.1499996       2.02674033E-09
   19.2224998       1.84462368E-09
   19.2950001       1.10582432E-09
   19.3675003      -9.10884076E-11
   19.4400005      -1.50011081E-09
   19.5125008      -2.76960654E-09
   19.5849991      -3.52106433E-09
   19.6574993      -3.44916939E-09
   19.7299995      -2.41911757E-09
   19.8024998      -5.33964595E-10
   19.8750000       1.85148308E-09
   19.9475002       4.18304769E-09
   20.0200005       5.82274451E-09
   20.0925007       6.20668761E-09
   20.1650009       5.00942177E-09
   20.2374992       2.27116503E-09
   20.3099995      -1.55242896E-09
   20.3824997      -5.64341773E-09
   20.4549999      -8.97898556E-09
   20.5275002      -1.05666391E-08
   20.6000004      -9.70649872E-09
   20.6725006      -6.21629104E-09
   20.7450008      -5.56191981E-10
   20.8174992       6.19157969E-09
   20.8899994       1.25025874E-08
   20.9624996       1.67258651E-08
   21.0349998       1.74757275E-08
   21.1075001       1.40140042E-08
   21.1800003       6.52832588E-09
   21.2525005      -3.77554077E-09
   21.3250008      -1.48159787E-08
   21.3974991      -2.40120048E-08
   21.4699993      -2.88372899E-08
   21.5424995      -2.74437788E-08
   21.6149998      -1.92132692E-08
   21.6875000      -5.09051112E-09
   21.7600002       1.24176047E-08
   21.8325005       2.96261220E-08
   21.9050007       4.23985149E-08
   21.9775009       4.70807038E-08
   22.0499992       4.14365005E-08
   22.1224995       2.53539447E-08
   22.1949997       1.12727594E-09
   22.2674999      -2.67913567E-08
   22.3400002      -5.25559614E-08
   22.4125004      -7.00736962E-08
   22.4850006      -7.43153592E-08
   22.5575008      -6.25312992E-08
   22.6299992      -3.51230618E-08
   22.7024994       4.03369782E-09
   22.7749996       4.79462159E-08
   22.8474998       8.75733264E-08
   22.9200001       1.13507468E-07
   22.9925003       1.18017958E-07
   23.0650005       9.70547802E-08
   23.1375008       5.17228749E-08
   23.2099991      -1.12350218E-08
   23.2824993      -8.02303646E-08
   23.3549995      -1.40875244E-07
   23.4274998      -1.78917091E-07
   23.5000000      -1.83425115E-07
   23.5725002      -1.49493303E-07
   23.6450005      -7.98307340E-08
   23.7175007       1.51292543E-08
   23.7900009       1.18653752E-07
   23.8624992       2.10446927E-07
   23.9349995       2.70287018E-07
   24.0074997       2.82027855E-07
   24.0799999       2.37328962E-07
   24.1525002       1.38390007E-07
   24.2250004      -1.04876485E-09
   24.2975006      -1.57019414E-07
   24.3700008      -2.99121098E-07
   24.4424992      -3.96342443E-07
   24.5149994      -4.23793949E-07
   24.5874996      -3.68790666E-07
   24.6599998      -2.34715017E-07
   24.7325001      -4.15712051E-08
   24.8050003       1.77041144E-07
   24.8775005       3.79937489E-07
   24.9500008       5.26112387E-07
   25.0224991       5.82762482E-07
   25.0949993       5.32142110E-07
   25.1674995       3.76069323E-07
   25.2399998       1.37190966E-07
   25.3125000      -1.43552413E-07
   25.3850002      -4.13347806E-07
   25.4575005      -6.17189301E-07
   25.5300007      -7.09295477E-07
   25.6025009      -6.63932724E-07
   25.6749992      -4.82967550E-07
   25.7474995      -1.97882926E-07
   25.8199997       1.34822102E-07
   25.8924999       4.44292738E-07
   25.9650002       6.59929185E-07
   26.0375004       7.26861060E-07
   26.1100006       6.19038531E-07
   26.1825008       3.47257441E-07
   26.2549992      -3.95735533E-08
   26.3274994      -4.60512098E-07
   26.3999996      -8.15512976E-07
   26.4724998      -1.00366242E-06
   26.5450001      -9.44093756E-07
   26.6175003      -5.96011716E-07
   26.6900005       2.62727742E-08
   26.7625008       8.47085516E-07
   26.8349991       1.73435956E-06
   26.9074993       2.51606866E-06
   26.9799995       3.00583588E-06
   27.0524998       3.03331444E-06
   27.1250000       2.47383741E-06
   27.1975002       1.27194130E-06
   27.2700005      -5.45458420E-07
   27.3425007      -2.86863701E-06
   27.4150009      -5.51771336E-06
   27.4874992      -8.26664109E-06
   27.5599995      -1.08749255E-05
   27.6324997      -1.31219422E-05
   27.7049999      -1.48380150E-05
   27.7775002      -1.59267038E-05
   27.8500004      -1.63743352E-05
   27.9225006      -1.62453853E-05
   27.9950008      -1.56651167E-05
   28.0674992      -1.47933315E-05
   28.1399994      -1.37944362E-05
   28.2124996      -1.28091324E-05
   28.2849998      -1.19323568E-05
   28.3575001      -1.12009011E-05
   28.4300003      -1.05927311E-05
   28.5025005      -1.00384214E-05
   28.5750008      -9.44304520E-06
   28.6474991      -8.71456814E-06
   28.7199993      -7.79263974E-06
   28.7924995      -6.67073255E-06
   28.8649998      -5.40549172E-06
   28.9375000      -4.11008659E-06
   29.0100002      -2.93257517E-06
   29.0825005      -2.02437241E-06
   29.1550007      -1.50643427E-06
   29.2275009      -1.44105297E-06
   29.2999992      -1.81530345E-06
   29.3724995      -2.53919666E-06
   29.4449997      -3.45855642E-06
   29.5174999      -4.38022880E-06
   29.5900002      -5.10559721E-06
   29.6625004      -5.46724050E-06
   29.7350006      -5.36276229E-06
   29.8075008      -4.77954791E-06
   29.8799992      -3.80490201E-06
   29.9524994      -2.61812988E-06
   30.0249996      -1.46443324E-06
   30.0974998      -6.14322971E-07
   30.1700001      -3.15476854E-07
   30.2425003      -7.45714203E-07
   30.3150005      -1.97565441E-06
   30.3875008      -3.94792232E-06
   30.4599991      -6.47697425E-06
   30.5324993      -9.27034125E-06
   30.6049995      -1.19685847E-05
   30.6774998      -1.41979972E-05
   30.7500000      -1.56275273E-05
   30.8225002      -1.60203181E-05
   30.8950005      -1.52711546E-05
   30.9675007      -1.34239899E-05
   31.0400009      -1.06677617E-05
   31.1124992      -7.31243654E-06
   31.1849995      -3.74973069E-06
   31.2574997      -4.03753461E-07
   31.3299999       2.32315801E-06
   31.4025002       4.10401208E-06
   31.4750004       4.73383034E-06
   31.5475006       4.16209696E-06
   31.6200008       2.50395078E-06
   31.6924992       2.59195865E-08
   31.7649994      -2.89279046E-06
   31.8374996      -5.81647691E-06
   31.9099998      -8.31554735E-06
   31.9825001      -1.00241623E-05
   32.0550003      -1.06848493E-05
   32.1274986      -1.01769638E-05
   32.2000008      -8.52957783E-06
   32.2724991      -5.92022616E-06
   32.3450012      -2.65930566E-06
   32.4174995       8.41697272E-07
   32.4900017       4.11912424E-06
   32.5625000       6.72001352E-06
   32.6349983       8.26993073E-06
   32.7075005       8.53265374E-06
   32.7799988       7.44888575E-06
   32.8525009       5.14623935E-06
   32.9249992       1.92032144E-06
   32.9975014      -1.80677148E-06
   33.0699997      -5.54141616E-06
   33.1425018      -8.77871662E-06
   33.2150002      -1.10625360E-05
   33.2874985      -1.20414898E-05
   33.3600006      -1.15165585E-05
   33.4324989      -9.47427725E-06
   33.5050011      -6.09874269E-06
   33.5774994      -1.75763410E-06
   33.6500015       3.03799266E-06
   33.7224998       7.69522921E-06
   33.7949982       1.16135443E-05
   33.8675003       1.42618701E-05
   33.9399986       1.52492194E-05
   34.0125008       1.43803991E-05
   34.0849991       1.16891233E-05
   34.1575012       7.44206773E-06
   34.2299995       2.11067822E-06
   34.3025017      -3.68691440E-06
   34.3750000      -9.26502253E-06
   34.4474983      -1.39572285E-05
   34.5200005      -1.71971460E-05
   34.5924988      -1.85830213E-05
   34.6650009      -1.79212730E-05
   34.7374992      -1.52477041E-05
   34.8100014      -1.08257773E-05
   34.8824997      -5.12033239E-06
   34.9550018       1.25432746E-06
   35.0275002       7.60891544E-06
   35.0999985       1.32660853E-05
   35.1725006       1.76436388E-05
   35.2449989       2.03170257E-05
   35.3175011       2.10504113E-05
   35.3899994       1.97965619E-05
   35.4625015       1.66760310E-05
   35.5349998       1.19504602E-05
   35.6074982       6.00104750E-06
   35.6800003      -6.85971884E-07
   35.7524986      -7.53450968E-06
   35.8250008      -1.39064477E-05
   35.8974991      -1.91509371E-05
   35.9700012      -2.26749344E-05
   36.0424995      -2.40240515E-05
   36.1150017      -2.29557154E-05
   36.1875000      -1.94862587E-05
   36.2599983      -1.39000085E-05
   36.3325005      -6.71895486E-06
   36.4049988       1.35855703E-06
   36.4775009       9.53623567E-06
   36.5499992       1.70019521E-05
   36.6225014       2.30050537E-05
   36.6949997       2.69257616E-05
   36.7675018       2.83359714E-05
   36.8400002       2.70489181E-05
   36.9124985       2.31510330E-05
   36.9850006       1.70065596E-05
   37.0574989       9.22731670E-06
   37.1300011       6.06696517E-07
   37.2024994      -7.97413304E-06
   37.2750015      -1.56527440E-05
   37.3474998      -2.16869066E-05
   37.4199982      -2.55353207E-05
   37.4925003      -2.69070570E-05
   37.5649986      -2.57751144E-05
   37.6375008      -2.23554198E-05
   37.7099991      -1.70582152E-05
   37.7825012      -1.04235114E-05
   37.8549995      -3.05466392E-06
   37.9275017       4.43774752E-06
   38.0000000       1.14761624E-05
   38.0724983       1.75433088E-05
   38.1450005       2.22052004E-05
   38.2174988       2.51375968E-05
   38.2900009       2.61560635E-05
   38.3624992       2.52401496E-05
   38.4350014       2.25376243E-05
   38.5074997       1.83392731E-05
   38.5800018       1.30271337E-05
   38.6525002       7.01227736E-06
   38.7249985       6.84070301E-07
   38.7975006      -5.61257184E-06
   38.8699989      -1.15697549E-05
   38.9425011      -1.68918978E-05
   39.0149994      -2.12746181E-05
   39.0875015      -2.44049588E-05
   39.1599998      -2.59889584E-05
   39.2324982      -2.57988213E-05
   39.3050003      -2.37227669E-05
   39.3774986      -1.97996815E-05
   39.4500008      -1.42273366E-05
   39.5224991      -7.34332662E-06
   39.5950012       4.12181521E-07
   39.6674995       8.53759775E-06
   39.7400017       1.65020301E-05
   39.8125000       2.37632612E-05
   39.8849983       2.97773586E-05
   39.9575005       3.40142942E-05
   40.0299988       3.59944606E-05
   40.1025009       3.53514224E-05
   40.1749992       3.19101346E-05
   40.2475014       2.57557240E-05
   40.3199997       1.72648124E-05
   40.3925018       7.08276457E-06
   40.4650002      -3.94942072E-06
   40.5374985      -1.48965282E-05
   40.6100006      -2.48309461E-05
   40.6824989      -3.29158502E-05
   40.7550011      -3.84666419E-05
   40.8274994      -4.09989225E-05
   40.9000015      -4.02703663E-05
   40.9724998      -3.63133076E-05
   41.0449982      -2.94445144E-05
   41.1175003      -2.02390511E-05
   41.1899986      -9.46720229E-06
   41.2625008       1.99069359E-06
   41.3349991       1.32293080E-05
   41.4075012       2.33879000E-05
   41.4799995       3.17046579E-05
   41.5525017       3.75676536E-05
   41.6250000       4.05716055E-05
   41.6974983       4.05739120E-05
   41.7700005       3.77266188E-05
   41.8424988       3.24580324E-05
   41.9150009       2.53942017E-05
   41.9874992       1.72388463E-05
   42.0600014       8.65263701E-06