  -20.0000000       0.00000000    
  -19.9274998       0.00000000    
  -19.8549995       0.00000000    
  -19.7824993       0.00000000    
  -19.7099991       0.00000000    
  -19.6375008       0.00000000    
  -19.5650005       0.00000000    
  -19.4925003       0.00000000    
  -19.4200001       0.00000000    
  -19.3474998       0.00000000    
  -19.2749996       0.00000000    
  -19.2024994       0.00000000    
  -19.1299992       0.00000000    
  -19.0575008       0.00000000    
  -18.9850006       0.00000000    
  -18.9125004       0.00000000    
  -18.8400002       0.00000000    
  -18.7674999       0.00000000    
  -18.6949997       0.00000000    
  -18.6224995       0.00000000    
  -18.5499992       0.00000000    
  -18.4775009       0.00000000    
  -18.4050007       0.00000000    
  -18.3325005       0.00000000    
  -18.2600002       0.00000000    
  -18.1875000       0.00000000    
  -18.1149998       0.00000000    
  -18.0424995       0.00000000    
  -17.9699993       0.00000000    
  -17.8974991       0.00000000    
  -17.8250008       0.00000000    
  -17.7525005       0.00000000    
  -17.6800003       0.00000000    
  -17.6075001       0.00000000    
  -17.5349998       0.00000000    
  -17.4624996       0.00000000    
  -17.3899994       0.00000000    
  -17.3174992       0.00000000    
  -17.2450008       0.00000000    
  -17.1725006       0.00000000    
  -17.1000004       0.00000000    
  -17.0275002       0.00000000    
  -16.9549999       0.00000000    
  -16.8824997       0.00000000    
  -16.8099995       0.00000000    
  -16.7374992       0.00000000    
  -16.6650009       0.00000000    
  -16.5925007       0.00000000    
  -16.5200005       0.00000000    
  -16.4475002       0.00000000    
  -16.3750000       0.00000000    
  -16.3024998       0.00000000    
  -16.2299995       0.00000000    
  -16.1574993       0.00000000    
  -16.0849991       0.00000000    
  -16.0125008       0.00000000    
  -15.9399996       0.00000000    
  -15.8675003       0.00000000    
  -15.7950001       0.00000000    
  -15.7224998       0.00000000    
  -15.6499996       0.00000000    
  -15.5775003       0.00000000    
  -15.5050001       0.00000000    
  -15.4324999       0.00000000    
  -15.3599997       0.00000000    
  -15.2875004       0.00000000    
  -15.2150002       0.00000000    
  -15.1424999       0.00000000    
  -15.0699997       0.00000000    
  -14.9975004       0.00000000    
  -14.9250002       0.00000000    
  -14.8525000       0.00000000    
  -14.7799997       0.00000000    
  -14.7075005       0.00000000    
  -14.6350002       0.00000000    
  -14.5625000       0.00000000    
  -14.4899998       0.00000000    
  -14.4174995       0.00000000    
  -14.3450003       0.00000000    
  -14.2725000       0.00000000    
  -14.1999998       0.00000000    
  -14.1274996       0.00000000    
  -14.0550003       0.00000000    
  -13.9825001       0.00000000    
  -13.9099998       0.00000000    
  -13.8374996       0.00000000    
  -13.7650003       0.00000000    
  -13.6925001       0.00000000    
  -13.6199999       0.00000000    
  -13.5474997       0.00000000    
  -13.4750004       0.00000000    
  -13.4025002       0.00000000    
  -13.3299999       0.00000000    
  -13.2574997       0.00000000    
  -13.1850004       0.00000000    
  -13.1125002       0.00000000    
  -13.0400000       0.00000000    
  -12.9674997       0.00000000    
  -12.8950005       0.00000000    
  -12.8225002       0.00000000    
  -12.7500000       0.00000000    
  -12.6774998       0.00000000    
  -12.6049995       0.00000000    
  -12.5325003       0.00000000    
  -12.4600000       0.00000000    
  -12.3874998       0.00000000    
  -12.3149996       0.00000000    
  -12.2425003       0.00000000    
  -12.1700001       0.00000000    
  -12.0974998       0.00000000    
  -12.0249996       0.00000000    
  -11.9525003       0.00000000    
  -11.8800001       0.00000000    
  -11.8074999       0.00000000    
  -11.7349997       0.00000000    
  -11.6625004       0.00000000    
  -11.5900002       0.00000000    
  -11.5174999       0.00000000    
  -11.4449997       0.00000000    
  -11.3725004       0.00000000    
  -11.3000002       0.00000000    
  -11.2275000       0.00000000    
  -11.1549997       0.00000000    
  -11.0825005       0.00000000    
  -11.0100002       0.00000000    
  -10.9375000       0.00000000    
  -10.8649998       0.00000000    
  -10.7924995       0.00000000    
  -10.7200003       0.00000000    
  -10.6475000       0.00000000    
  -10.5749998       0.00000000    
  -10.5024996       0.00000000    
  -10.4300003       0.00000000    
  -10.3575001       0.00000000    
  -10.2849998       0.00000000    
  -10.2124996       0.00000000    
  -10.1400003       0.00000000    
  -10.0675001       0.00000000    
  -9.99499989       0.00000000    
  -9.92249966       0.00000000    
  -9.85000038       0.00000000    
  -9.77750015       0.00000000    
  -9.70499992       0.00000000    
  -9.63249969       0.00000000    
  -9.56000042       0.00000000    
  -9.48750019       0.00000000    
  -9.41499996       0.00000000    
  -9.34249973       0.00000000    
  -9.27000046       0.00000000    
  -9.19750023       0.00000000    
  -9.12500000       0.00000000    
  -9.05249977       0.00000000    
  -8.97999954       0.00000000    
  -8.90750027       0.00000000    
  -8.83500004       0.00000000    
  -8.76249981       0.00000000    
  -8.68999958       0.00000000    
  -8.61750031       0.00000000    
  -8.54500008       0.00000000    
  -8.47249985       0.00000000    
  -8.39999962       0.00000000    
  -8.32750034       0.00000000    
  -8.25500011       0.00000000    
  -8.18249989       0.00000000    
  -8.10999966       0.00000000    
  -8.03750038       0.00000000    
  -7.96500015       0.00000000    
  -7.89249992       0.00000000    
  -7.82000017       0.00000000    
  -7.74749994       0.00000000    
  -7.67500019       0.00000000    
  -7.60249996       0.00000000    
  -7.53000021       0.00000000    
  -7.45749998       0.00000000    
  -7.38500023       0.00000000    
  -7.31250000       0.00000000    
  -7.23999977       0.00000000    
  -7.16750002       0.00000000    
  -7.09499979       0.00000000    
  -7.02250004       0.00000000    
  -6.94999981       0.00000000    
  -6.87750006       0.00000000    
  -6.80499983       0.00000000    
  -6.73250008       0.00000000    
  -6.65999985       0.00000000    
  -6.58750010       0.00000000    
  -6.51499987       0.00000000    
  -6.44250011       0.00000000    
  -6.36999989       0.00000000    
  -6.29750013       0.00000000    
  -6.22499990       0.00000000    
  -6.15250015       0.00000000    
  -6.07999992       0.00000000    
  -6.00750017       0.00000000    
  -5.93499994       0.00000000    
  -5.86250019       0.00000000    
  -5.78999996       0.00000000    
  -5.71750021       0.00000000    
  -5.64499998       0.00000000    
  -5.57250023       0.00000000    
  -5.50000000       0.00000000    
  -5.42749977       0.00000000    
  -5.35500002       0.00000000    
  -5.28249979       0.00000000    
  -5.21000004       0.00000000    
  -5.13749981       0.00000000    
  -5.06500006       0.00000000    
  -4.99249983       0.00000000    
  -4.92000008       0.00000000    
  -4.84749985       0.00000000    
  -4.77500010       0.00000000    
  -4.70249987       0.00000000    
  -4.63000011       0.00000000    
  -4.55749989       0.00000000    
  -4.48500013       0.00000000    
  -4.41249990       0.00000000    
  -4.34000015       0.00000000    
  -4.26749992       0.00000000    
  -4.19500017       0.00000000    
  -4.12249994       0.00000000    
  -4.05000019       0.00000000    
  -3.97749996       0.00000000    
  -3.90499997       0.00000000    
  -3.83249998       0.00000000    
  -3.75999999       0.00000000    
  -3.68750000       0.00000000    
  -3.61500001       0.00000000    
  -3.54250002       0.00000000    
  -3.47000003       0.00000000    
  -3.39750004       0.00000000    
  -3.32500005       0.00000000    
  -3.25250006       0.00000000    
  -3.18000007       0.00000000    
  -3.10750008       0.00000000    
  -3.03500009       0.00000000    
  -2.96250010       0.00000000    
  -2.89000010       0.00000000    
  -2.81750011       0.00000000    
  -2.74499989       0.00000000    
  -2.67249990       0.00000000    
  -2.59999990       0.00000000    
  -2.52749991       0.00000000    
  -2.45499992       0.00000000    
  -2.38249993       0.00000000    
  -2.30999994       0.00000000    
  -2.23749995       0.00000000    
  -2.16499996       0.00000000    
  -2.09249997       0.00000000    
  -2.01999998       0.00000000    
  -1.94749999       0.00000000    
  -1.87500000       0.00000000    
  -1.80250001       0.00000000    
  -1.73000002       0.00000000    
  -1.65750003       0.00000000    
  -1.58500004       0.00000000    
  -1.51250005       0.00000000    
  -1.44000006       0.00000000    
  -1.36749995       0.00000000    
  -1.29499996       0.00000000    
  -1.22249997       0.00000000    
  -1.14999998       0.00000000    
  -1.07749999       0.00000000    
  -1.00500000       0.00000000    
 -0.932500005       0.00000000    
 -0.860000014       0.00000000    
 -0.787500024       0.00000000    
 -0.714999974       0.00000000    
 -0.642499983       0.00000000    
 -0.569999993       0.00000000    
 -0.497500002       0.00000000    
 -0.425000012       0.00000000    
 -0.352499992       0.00000000    
 -0.280000001       0.00000000    
 -0.207499996       0.00000000    
 -0.135000005       0.00000000    
  -6.25000000E-02   0.00000000    
   9.99999978E-03   0.00000000    
   8.25000033E-02   0.00000000    
  0.155000001       0.00000000    
  0.227500007       0.00000000    
  0.300000012       0.00000000    
  0.372500002       0.00000000    
  0.444999993       0.00000000    
  0.517499983       0.00000000    
  0.589999974       0.00000000    
  0.662500024       0.00000000    
  0.735000014       0.00000000    
  0.807500005       0.00000000    
  0.879999995       0.00000000    
  0.952499986       0.00000000    
   1.02499998       0.00000000    
   1.09749997       0.00000000    
   1.16999996       0.00000000    
   1.24249995       0.00000000    
   1.31500006       0.00000000    
   1.38750005       0.00000000    
   1.46000004       0.00000000    
   1.53250003       0.00000000    
   1.60500002       0.00000000    
   1.67750001       0.00000000    
   1.75000000       0.00000000    
   1.82249999       0.00000000    
   1.89499998      -0.00000000    
   1.96749997      -0.00000000    
   2.03999996      -0.00000000    
   2.11249995      -0.00000000    
   2.18499994       0.00000000    
   2.25749993       0.00000000    
   2.32999992      -0.00000000    
   2.40249991      -0.00000000    
   2.47499990       1.35235910E-38
   2.54749990       1.09964050E-37
   2.61999989       2.24333894E-37
   2.69250011      -1.67926362E-37
   2.76500010      -1.63799208E-36
   2.83750010      -3.17466485E-36
   2.91000009       5.77464290E-37
   2.98250008       1.81968678E-35
   3.05500007       4.56233895E-35
   3.12750006       3.24066516E-35
   3.20000005      -1.37552331E-34
   3.27250004      -5.07373622E-34
   3.34500003      -6.85987417E-34
   3.41750002       4.59600934E-34
   3.49000001       4.07085265E-33
   3.56250000       8.33104364E-33
   3.63499999       4.40426509E-33
   3.70749998      -2.17955769E-32
   3.77999997      -7.05097834E-32
   3.85249996      -9.06330360E-32
   3.92499995       3.85741763E-32
   3.99749994       4.19224168E-31
   4.07000017       8.72273702E-31
   4.14249992       6.37657537E-31
   4.21500015      -1.44297856E-30
   4.28749990      -5.55118574E-30
   4.36000013      -8.38535980E-30
   4.43249989      -1.83105457E-30
   4.50500011       2.23301075E-29
   4.57749987       5.79192616E-29
   4.65000010       6.61364523E-29
   4.72249985      -2.23107549E-29
   4.79500008      -2.49706977E-28
   4.86749983      -5.10328824E-28
   4.94000006      -4.45978497E-28
   5.01249981       4.46178842E-28
   5.08500004       2.28833276E-27
   5.15749979       3.96457686E-27
   5.23000002       2.66274240E-27
   5.30249977      -4.83663833E-27
   5.37500000      -1.81443801E-26
   5.44750023      -2.79098125E-26
   5.51999998      -1.46079691E-26
   5.59250021       4.03948953E-26
   5.66499996       1.27953584E-25
   5.73750019       1.81121897E-25
   5.80999994       7.74616604E-26
   5.88250017      -2.82535957E-25
   5.95499992      -8.14306205E-25
   6.02750015      -1.09552999E-24
   6.09999990      -4.23308580E-25
   6.17250013       1.70505895E-24
   6.24499989       4.71488279E-24
   6.31750011       6.22055754E-24
   6.38999987       2.48638761E-24
   6.46250010      -8.96389352E-24
   6.53499985      -2.49507806E-23
   6.60750008      -3.32787158E-23
   6.67999983      -1.53859731E-23
   6.75250006       4.09173727E-23
   6.82499981       1.20894537E-22
   6.89750004       1.67693678E-22
   6.96999979       9.44857771E-23
   7.04250002      -1.58939380E-22
   7.11499977      -5.35593388E-22
   7.18750000      -7.92745332E-22
   7.26000023      -5.47071428E-22
   7.33249998       4.94598773E-22
   7.40500021       2.15726240E-21
   7.47749996       3.49178301E-21
   7.55000019       2.90503670E-21
   7.62249994      -9.74421589E-22
   7.69500017      -7.80436992E-21
   7.76749992      -1.42062906E-20
   7.84000015      -1.39859973E-20
   7.91249990      -1.11010132E-21
   7.98500013       2.47584915E-20
   8.05749989       5.28337479E-20
   8.13000011       6.07819746E-20
   8.20250034       2.39840356E-20
   8.27499962      -6.53240750E-20
   8.34749985      -1.77208557E-19
   8.42000008      -2.37799899E-19
   8.49250031      -1.54705005E-19
   8.56499958       1.21928025E-19
   8.63749981       5.25122687E-19
   8.71000004       8.33941780E-19
   8.78250027       7.31510661E-19
   8.85499954      -1.74342354E-20
   8.92749977      -1.32235678E-18
   9.00000000      -2.59897977E-18
   9.07250023      -2.86126055E-18
   9.14500046      -1.18352495E-18
   9.21749973       2.56406117E-18
   9.28999996       7.07402875E-18
   9.36250019       9.59254804E-18
   9.43500042       6.96208143E-18
   9.50749969      -2.36749204E-18
   9.57999992      -1.61970269E-17
   9.65250015      -2.77554003E-17
   9.72500038      -2.75898946E-17
   9.79749966      -8.48431710E-18
   9.86999989       2.82159215E-17
   9.94250011       6.84164857E-17
   10.0150003       8.73322071E-17
   10.0874996       5.99481149E-17
   10.1599998      -2.24643924E-17
   10.2325001      -1.37491486E-16
   10.3050003      -2.29140491E-16
   10.3774996      -2.26034580E-16
   10.4499998      -7.91370574E-17
   10.5225000       1.95402348E-16
   10.5950003       4.93192186E-16
   10.6674995       6.42737600E-16
   10.7399998       4.78767162E-16
   10.8125000      -5.33733526E-17
   10.8850002      -8.12428475E-16
   10.9575005      -1.45587441E-15
   11.0299997      -1.55307355E-15
   11.1025000      -8.00292346E-16
   11.1750002       7.47035784E-16
   11.2475004       2.55418296E-15
   11.3199997       3.71432757E-15
   11.3924999       3.31117016E-15
   11.4650002       9.28925469E-16
   11.5375004      -2.92249787E-15
   11.6099997      -6.73616123E-15
   11.6824999      -8.45795347E-15
   11.7550001      -6.39491495E-15
   11.8275003      -2.46384811E-16
   11.8999996       8.25632152E-15
   11.9724998       1.55719147E-14
   12.0450001       1.75906381E-14
   12.1175003       1.15600084E-14
   12.1899996      -2.10150229E-15
   12.2624998      -1.90708519E-14
   12.3350000      -3.21441041E-14
   12.4075003      -3.39710526E-14
   12.4799995      -2.05696259E-14
   12.5524998       5.93053210E-15
   12.6250000       3.68336919E-14
   12.6975002       5.94212722E-14
   12.7700005       6.18749098E-14
   12.8424997       3.87036628E-14
   12.9150000      -5.73835133E-15
   12.9875002      -5.74994086E-14
   13.0600004      -9.73850923E-14
   13.1324997      -1.07946678E-13
   13.2049999      -8.03765962E-14
   13.2775002      -1.85332435E-14
   13.3500004       6.14836009E-14
   13.4224997       1.35928608E-13
   13.4949999       1.80313867E-13
   13.5675001       1.76195430E-13
   13.6400003       1.16037971E-13
   13.7124996       5.61320349E-15
   13.7849998      -1.35610951E-13
   13.8575001      -2.75588471E-13
   13.9300003      -3.72738732E-13
   14.0024996      -3.82436677E-13
   14.0749998      -2.68555442E-13
   14.1475000      -1.98394547E-14
   14.2200003       3.32744791E-13
   14.2924995       7.05525482E-13
   14.3649998       9.68281336E-13
   14.4375000       9.74251279E-13
   14.5100002       6.13149342E-13
   14.5825005      -1.25676935E-13
   14.6549997      -1.10429851E-12
   14.7275000      -2.03055931E-12
   14.8000002      -2.51730949E-12
   14.8725004      -2.20685818E-12
   14.9449997      -9.30974482E-13
   15.0174999       1.15069521E-12
   15.0900002       3.50166055E-12
   15.1625004       5.30013663E-12
   15.2349997       5.67698839E-12
   15.3074999       4.04485516E-12
   15.3800001       4.09488578E-13
   15.4525003      -4.46636565E-12
   15.5249996      -9.14763057E-12
   15.5974998      -1.18855377E-11
   15.6700001      -1.11756290E-11
   15.7425003      -6.35235397E-12
   15.8149996       1.98375474E-12
   15.8874998       1.18843355E-11
   15.9600000       2.04054811E-11
   16.0324993       2.43553060E-11
   16.1049995       2.12706467E-11
   16.1774998       1.03654828E-11
   16.2500000      -6.83663846E-12
   16.3225002      -2.64332115E-11
   16.3950005      -4.27755366E-11
   16.4675007      -4.97802181E-11
   16.5400009      -4.27028725E-11
   16.6124992      -1.99692884E-11
   16.6849995       1.54725694E-11
   16.7574997       5.58321271E-11
   16.8299999       8.95895441E-11
   16.9025002       1.04113690E-10
   16.9750004       8.93894680E-11
   17.0475006       4.19721445E-11
   17.1200008      -3.20563923E-11
   17.1924992      -1.16386602E-10
   17.2649994      -1.86906615E-10
   17.3374996      -2.17332555E-10
   17.4099998      -1.87081947E-10
   17.4825001      -8.94256752E-11
   17.5550003       6.26633329E-11
   17.6275005       2.35473058E-10
   17.7000008       3.79916959E-10
   17.7724991       4.43213910E-10
   17.8449993       3.84719118E-10
   17.9174995       1.91842667E-10
   17.9899998      -1.09046779E-10
   18.0625000      -4.51455179E-10
   18.1350002      -7.40016104E-10
   18.2075005      -8.73439598E-10
   18.2800007      -7.74487474E-10
   18.3525009      -4.19048629E-10
   18.4249992       1.44939102E-10
   18.4974995       7.96569533E-10
   18.5699997       1.36276002E-09
   18.6424999       1.65853753E-09
   18.7150002       1.53849566E-09
   18.7875004       9.46614898E-10
   18.8600006      -4.98242871E-11
   18.9325008      -1.25435340E-09
   19.0049992      -2.37007458E-09
   19.0774994      -3.06180215E-09
   19.1499996      -3.04147929E-09
   19.2224998      -2.15866613E-09
   19.2950001      -4.72519135E-10
   19.3675003       1.71887649E-09
   19.4400005       3.91001498E-09
   19.5125008       5.48558310E-09
   19.5849991       5.87129412E-09
   19.6574993       4.70597250E-09
   19.7299995       1.98900740E-09
   19.8024998      -1.84539173E-09
   19.8750000      -5.96366023E-09
   19.9475002      -9.28883459E-09
   20.0200005      -1.07542037E-08
   20.0925007      -9.59979474E-09
   20.1650009      -5.63604585E-09
   20.2374992       6.03130490E-10
   20.3099995       7.87695420E-09
   20.3824997       1.44462300E-08
   20.4549999       1.84485849E-08
   20.5275002       1.83681728E-08
   20.6000004       1.34920395E-08
   20.6725006       4.23195745E-09
   20.7450008      -7.79373899E-09
   20.8174992      -1.99779748E-08
   20.8899994      -2.92331919E-08
   20.9624996      -3.27035714E-08
   21.0349998      -2.85287989E-08
   21.1075001      -1.64721232E-08
   21.1800003       1.76569270E-09
   21.2525005       2.26694166E-08
   21.3250008       4.15003711E-08
   21.3974991       5.32765974E-08
   21.4699993       5.39592939E-08
   21.5424995       4.15881765E-08
   21.6149998       1.70825469E-08
   21.6875000      -1.55384452E-08
   21.7600002      -4.96609225E-08
   21.8325005      -7.72952120E-08
   21.9050007      -9.08150639E-08
   21.9775009      -8.48600621E-08
   22.0499992      -5.79492330E-08
   22.1224995      -1.33666207E-08
   22.1949997       4.09877394E-08
   22.2674999       9.38610611E-08
   22.3400002       1.32840142E-07
   22.4125004       1.47055090E-07
   22.4850006       1.29832628E-07
   22.5575008       8.07127734E-08
   22.6299992       6.33349240E-09
   22.7024994      -8.01258793E-08
   22.7749996      -1.60998241E-07
   22.8474998      -2.17441425E-07
   22.9200001      -2.33473131E-07
   22.9925003      -1.99940700E-07
   23.0650005      -1.17511334E-07
   23.1375008       2.16014118E-09
   23.2099991       1.37621271E-07
   23.2824993       2.61198579E-07
   23.3549995       3.44401144E-07
   23.4274998       3.64090909E-07
   23.5000000       3.08096446E-07
   23.5725002       1.79002072E-07
   23.6450005      -4.81447060E-09
   23.7175007      -2.11297618E-07
   23.7900009      -3.99808044E-07
   23.8624992      -5.28484236E-07
   23.9349995      -5.62713353E-07
   24.0074997      -4.83216240E-07
   24.0799999      -2.92081154E-07
   24.1525002      -1.51719011E-08
   24.2250004       3.00202004E-07
   24.2975006       5.92600543E-07
   24.3700008       7.97853374E-07
   24.4424992       8.62498439E-07
   24.5149994       7.56431291E-07
   24.5874996       4.81817381E-07
   24.6599998       7.59625891E-08
   24.7325001      -3.92927859E-07
   24.8050003      -8.36677032E-07
   24.8775005      -1.16295598E-06
   24.9500008      -1.29322962E-06
   25.0224991      -1.17959894E-06
   25.0949993      -8.17331909E-07
   25.1674995      -2.50357147E-07
   25.2399998       4.32092577E-07
   25.3125000       1.10812073E-06
   25.3850002       1.64377821E-06
   25.4575005       1.91847130E-06
   25.5300007       1.85046690E-06
   25.6025009       1.41712451E-06
   25.6749992       6.65020366E-07
   25.7474995      -2.93081030E-07
   25.8199997      -1.29480736E-06
   25.8924999      -2.15581213E-06
   25.9650002      -2.70354008E-06
   26.0375004      -2.81078383E-06
   26.1100006      -2.42253168E-06
   26.1825008      -1.57067007E-06
   26.2549992      -3.73193416E-07
   26.3274994       9.82698339E-07
   26.3999996       2.27125838E-06
   26.4724998       3.26754093E-06
   26.5450001       3.78843765E-06
   26.6175003       3.72767818E-06
   26.6900005       3.07784148E-06
   26.7625008       1.93458436E-06
   26.8349991       4.81478367E-07
   26.9074993      -1.04253274E-06
   26.9799995      -2.38769098E-06
   27.0524998      -3.34211131E-06
   27.1250000      -3.77549463E-06
   27.1975002      -3.66911559E-06
   27.2700005      -3.12536758E-06
   27.3425007      -2.35368248E-06
   27.4150009      -1.63415416E-06
   27.4874992      -1.26485270E-06
   27.5599995      -1.50250116E-06
   27.6324997      -2.50797598E-06
   27.7049999      -4.30745513E-06
   27.7775002      -6.77713479E-06
   27.8500004      -9.65500294E-06
   27.9225006      -1.25782371E-05
   27.9950008      -1.51403501E-05
   28.0674992      -1.69588311E-05
   28.1399994      -1.77420679E-05
   28.2124996      -1.73439075E-05
   28.2849998      -1.57955474E-05
   28.3575001      -1.33076746E-05
   28.4300003      -1.02407766E-05
   28.5025005      -7.04762579E-06
   28.5750008      -4.19788057E-06
   28.6474991      -2.09880159E-06
   28.7199993      -1.02714387E-06
   28.7924995      -1.08487575E-06
   28.8649998      -2.18625200E-06
   28.9375000      -4.07740663E-06
   29.0100002      -6.38365782E-06
   29.0825005      -8.67531708E-06
   29.1550007      -1.05404042E-05
   29.2275009      -1.16522215E-05
   29.2999992      -1.18209427E-05
   29.3724995      -1.10210822E-05
   29.4449997      -9.39073743E-06
   29.5174999      -7.20338721E-06
   29.5900002      -4.81803863E-06
   29.6625004      -2.61735090E-06
   29.7350006      -9.45122906E-07
   29.8075008      -5.37765388E-08
   29.8799992      -6.97284364E-08
   29.9524994      -9.80779191E-07
   30.0249996      -2.64590335E-06
   30.0974998      -4.82462656E-06
   30.1700001      -7.22056484E-06
   30.2425003      -9.53158269E-06
   30.3150005      -1.14976747E-05
   30.3875008      -1.29377577E-05
   30.4599991      -1.37687075E-05
   30.5324993      -1.40042112E-05
   30.6049995      -1.37361094E-05
   30.6774998      -1.31051565E-05
   30.7500000      -1.22696583E-05
   30.8225002      -1.13788765E-05
   30.8950005      -1.05544896E-05
   30.9675007      -9.87982639E-06
   31.0400009      -9.39486017E-06
   31.1124992      -9.09562641E-06
   31.1849995      -8.93842571E-06
   31.2574997      -8.85024292E-06
   31.3299999      -8.74569923E-06
   31.4025002      -8.54807331E-06
   31.4750004      -8.20917103E-06
   31.5475006      -7.72211115E-06
   31.6200008      -7.12332258E-06
   31.6924992      -6.48419882E-06
   31.7649994      -5.89656656E-06
   31.8374996      -5.45737566E-06
   31.9099998      -5.25626729E-06
   31.9825001      -5.36636026E-06
   32.0550003      -5.83602787E-06
   32.1274986      -6.67936047E-06
   32.2000008      -7.86533292E-06
   32.2724991      -9.30873466E-06
   32.3450012      -1.08675831E-05
   32.4174995      -1.23509053E-05
   32.4900017      -1.35379505E-05
   32.5625000      -1.42067529E-05
   32.6349983      -1.41678311E-05
   32.7075005      -1.32981822E-05
   32.7799988      -1.15707726E-05
   32.8525009      -9.07482081E-06
   32.9249992      -6.02203681E-06
   32.9975014      -2.73478531E-06
   33.0699997       3.85478103E-07
   33.1425018       2.90693424E-06
   33.2150002       4.42634155E-06
   33.2874985       4.62860635E-06
   33.3600006       3.33782327E-06
   33.4324989       5.53398195E-07
   33.5050011      -3.53201744E-06
   33.5774994      -8.53471192E-06
   33.6500015      -1.39047579E-05
   33.7224998      -1.89767361E-05
   33.7949982      -2.30474125E-05
   33.8675003      -2.54751358E-05
   33.9399986      -2.57867814E-05
   34.0125008      -2.37707354E-05
   34.0849991      -1.95332668E-05
   34.1575012      -1.35023720E-05
   34.2299995      -6.37608809E-06
   34.3025017       9.74188538E-07
   34.3750000       7.62545278E-06
   34.4474983       1.27277299E-05
   34.5200005       1.56131191E-05
   34.5924988       1.58769944E-05
   34.6650009       1.34247121E-05
   34.7374992       8.48087620E-06
   34.8100014       1.56105421E-06
   34.8824997      -6.59066382E-06
   34.9550018      -1.50903034E-05
   35.0275002      -2.30166261E-05
   35.0999985      -2.95135578E-05
   35.1725006      -3.38798382E-05
   35.2449989      -3.56374003E-05
   35.3175011      -3.45744374E-05
   35.3899994      -3.07619703E-05
   35.4625015      -2.45437786E-05
   35.5349998      -1.65002384E-05
   35.6074982      -7.38885456E-06
   35.6800003       1.93198866E-06
   35.7524986       1.05858799E-05
   35.8250008       1.77566071E-05
   35.8974991       2.27535402E-05
   35.9700012       2.50616940E-05
   36.0424995       2.43789473E-05
   36.1150017       2.06442128E-05
   36.1875000       1.40570983E-05
   36.2599983       5.08430549E-06
   36.3325005      -5.55545603E-06
   36.4049988      -1.69350351E-05
   36.4775009      -2.79922315E-05
   36.5499992      -3.76271419E-05
   36.6225014      -4.48125138E-05
   36.6949997      -4.87048346E-05
   36.7675018      -4.87451616E-05
   36.8400002      -4.47400234E-05
   36.9124985      -3.69121663E-05
   36.9850006      -2.59096523E-05
   37.0574989      -1.27627200E-05
   37.1300011       1.21575556E-06
   37.2024994       1.45786471E-05
   37.2750015       2.59207754E-05
   37.3474998       3.40527404E-05
   37.4199982       3.81419632E-05
   37.4925003       3.77995493E-05
   37.5649986       3.31058582E-05
   37.6375008       2.45805768E-05
   37.7099991       1.31098714E-05
   37.7825012      -1.56440890E-07
   37.8549995      -1.39277936E-05
   37.9275017      -2.69071443E-05
   38.0000000      -3.79254125E-05
   38.0724983      -4.60602532E-05
   38.1450005      -5.07211771E-05
   38.2174988      -5.16872569E-05
   38.2900009      -4.90939419E-05
   38.3624992      -4.33779023E-05
   38.4350014      -3.51968774E-05
   38.5074997      -2.53424314E-05
   38.5800018      -1.46577349E-05
   38.6525002      -3.96561654E-06
   38.7249985       5.99168879E-06
   38.7975006       1.45987715E-05
   38.8699989       2.13949352E-05
   38.9425011       2.60802353E-05
   39.0149994       2.85018177E-05
   39.0875015       2.86298327E-05
   39.1599998       2.65354010E-05
   39.2324982       2.23787411E-05
   39.3050003       1.64059784E-05
   39.3774986       8.94523691E-06
   39.4500008       3.92822244E-07
   39.5224991      -8.81081814E-06
   39.5950012      -1.82052263E-05
   39.6674995      -2.73210862E-05
   39.7400017      -3.56745331E-05
   39.8125000      -4.27566920E-05
   39.8849983      -4.80412127E-05
   39.9575005      -5.10275459E-05
   40.0299988      -5.13176892E-05
   40.1025009      -4.87005309E-05
   40.1749992      -4.32077541E-05
   40.2475014      -3.51169583E-05
   40.3199997      -2.49053301E-05
   40.3925018      -1.31832658E-05
   40.4650002      -6.43755413E-07
   40.5374985       1.19543929E-05
   40.6100006       2.37815839E-05
   40.6824989       3.39446706E-05
   40.7550011       4.15384893E-05
   40.8274994       4.57488932E-05
   40.9000015       4.59829498E-05
   40.9724998       4.19839707E-05
   41.0449982       3.38945138E-05
   41.1175003       2.22541530E-05
   41.1899986       7.94330208E-06
   41.2625008      -7.90461763E-06
   41.3349991      -2.40058762E-05
   41.4075012      -3.90392706E-05
   41.4799995      -5.17697517E-05
   41.5525017      -6.11762152E-05
   41.6250000      -6.65635307E-05
   41.6974983      -6.76319760E-05
   41.7700005      -6.44858010E-05
   41.8424988      -5.75832091E-05
   41.9150009      -4.76499954E-05
   41.9874992      -3.55848861E-05
   42.0600014      -2.23738080E-05