  -20.0000000       0.00000000    
  -19.9874992       0.00000000    
  -19.9750004       0.00000000    
  -19.9624996       0.00000000    
  -19.9500008       0.00000000    
  -19.9375000       0.00000000    
  -19.9249992       0.00000000    
  -19.9125004       0.00000000    
  -19.8999996       0.00000000    
  -19.8875008       0.00000000    
  -19.8750000       0.00000000    
  -19.8624992       0.00000000    
  -19.8500004       0.00000000    
  -19.8374996       0.00000000    
  -19.8250008       0.00000000    
  -19.8125000       0.00000000    
  -19.7999992       0.00000000    
  -19.7875004       0.00000000    
  -19.7749996       0.00000000    
  -19.7625008       0.00000000    
  -19.7500000       0.00000000    
  -19.7374992       0.00000000    
  -19.7250004       0.00000000    
  -19.7124996       0.00000000    
  -19.7000008       0.00000000    
  -19.6875000       0.00000000    
  -19.6749992       0.00000000    
  -19.6625004       0.00000000    
  -19.6499996       0.00000000    
  -19.6375008       0.00000000    
  -19.6250000       0.00000000    
  -19.6124992       0.00000000    
  -19.6000004       0.00000000    
  -19.5874996       0.00000000    
  -19.5750008       0.00000000    
  -19.5625000       0.00000000    
  -19.5499992       0.00000000    
  -19.5375004       0.00000000    
  -19.5249996       0.00000000    
  -19.5125008       0.00000000    
  -19.5000000       0.00000000    
  -19.4874992       0.00000000    
  -19.4750004       0.00000000    
  -19.4624996       0.00000000    
  -19.4500008       0.00000000    
  -19.4375000       0.00000000    
  -19.4249992       0.00000000    
  -19.4125004       0.00000000    
  -19.3999996       0.00000000    
  -19.3875008       0.00000000    
  -19.3750000       0.00000000    
  -19.3624992       0.00000000    
  -19.3500004       0.00000000    
  -19.3374996       0.00000000    
  -19.3250008       0.00000000    
  -19.3125000       0.00000000    
  -19.2999992       0.00000000    
  -19.2875004       0.00000000    
  -19.2749996       0.00000000    
  -19.2625008       0.00000000    
  -19.2500000       0.00000000    
  -19.2374992       0.00000000    
  -19.2250004       0.00000000    
  -19.2124996       0.00000000    
  -19.2000008       0.00000000    
  -19.1875000       0.00000000    
  -19.1749992       0.00000000    
  -19.1625004       0.00000000    
  -19.1499996       0.00000000    
  -19.1375008       0.00000000    
  -19.1250000       0.00000000    
  -19.1124992       0.00000000    
  -19.1000004       0.00000000    
  -19.0874996       0.00000000    
  -19.0750008       0.00000000    
  -19.0625000       0.00000000    
  -19.0499992       0.00000000    
  -19.0375004       0.00000000    
  -19.0249996       0.00000000    
  -19.0125008       0.00000000    
  -19.0000000       0.00000000    
  -18.9874992       0.00000000    
  -18.9750004       0.00000000    
  -18.9624996       0.00000000    
  -18.9500008       0.00000000    
  -18.9375000       0.00000000    
  -18.9249992       0.00000000    
  -18.9125004       0.00000000    
  -18.8999996       0.00000000    
  -18.8875008       0.00000000    
  -18.8750000       0.00000000    
  -18.8624992       0.00000000    
  -18.8500004       0.00000000    
  -18.8374996       0.00000000    
  -18.8250008       0.00000000    
  -18.8125000       0.00000000    
  -18.7999992       0.00000000    
  -18.7875004       0.00000000    
  -18.7749996       0.00000000    
  -18.7625008       0.00000000    
  -18.7500000       0.00000000    
  -18.7374992       0.00000000    
  -18.7250004       0.00000000    
  -18.7124996       0.00000000    
  -18.7000008       0.00000000    
  -18.6875000       0.00000000    
  -18.6749992       0.00000000    
  -18.6625004       0.00000000    
  -18.6499996       0.00000000    
  -18.6375008       0.00000000    
  -18.6250000       0.00000000    
  -18.6124992       0.00000000    
  -18.6000004       0.00000000    
  -18.5874996       0.00000000    
  -18.5750008       0.00000000    
  -18.5625000       0.00000000    
  -18.5499992       0.00000000    
  -18.5375004       0.00000000    
  -18.5249996       0.00000000    
  -18.5125008       0.00000000    
  -18.5000000       0.00000000    
  -18.4874992       0.00000000    
  -18.4750004       0.00000000    
  -18.4624996       0.00000000    
  -18.4500008       0.00000000    
  -18.4375000       0.00000000    
  -18.4249992       0.00000000    
  -18.4125004       0.00000000    
  -18.3999996       0.00000000    
  -18.3875008       0.00000000    
  -18.3750000       0.00000000    
  -18.3624992       0.00000000    
  -18.3500004       0.00000000    
  -18.3374996       0.00000000    
  -18.3250008       0.00000000    
  -18.3125000       0.00000000    
  -18.2999992       0.00000000    
  -18.2875004       0.00000000    
  -18.2749996       0.00000000    
  -18.2625008       0.00000000    
  -18.2500000       0.00000000    
  -18.2374992       0.00000000    
  -18.2250004       0.00000000    
  -18.2124996       0.00000000    
  -18.2000008       0.00000000    
  -18.1875000       0.00000000    
  -18.1749992       0.00000000    
  -18.1625004       0.00000000    
  -18.1499996       0.00000000    
  -18.1375008       0.00000000    
  -18.1250000       0.00000000    
  -18.1124992       0.00000000    
  -18.1000004       0.00000000    
  -18.0874996       0.00000000    
  -18.0750008       0.00000000    
  -18.0625000       0.00000000    
  -18.0499992       0.00000000    
  -18.0375004       0.00000000    
  -18.0249996       0.00000000    
  -18.0125008       0.00000000    
  -18.0000000       0.00000000    
  -17.9874992       0.00000000    
  -17.9750004       0.00000000    
  -17.9624996       0.00000000    
  -17.9500008       0.00000000    
  -17.9375000       0.00000000    
  -17.9249992       0.00000000    
  -17.9125004       0.00000000    
  -17.8999996       0.00000000    
  -17.8875008       0.00000000    
  -17.8750000       0.00000000    
  -17.8624992       0.00000000    
  -17.8500004       0.00000000    
  -17.8374996       0.00000000    
  -17.8250008       0.00000000    
  -17.8125000       0.00000000    
  -17.7999992       0.00000000    
  -17.7875004       0.00000000    
  -17.7749996       0.00000000    
  -17.7625008       0.00000000    
  -17.7500000       0.00000000    
  -17.7374992       0.00000000    
  -17.7250004       0.00000000    
  -17.7124996       0.00000000    
  -17.7000008       0.00000000    
  -17.6875000       0.00000000    
  -17.6749992       0.00000000    
  -17.6625004       0.00000000    
  -17.6499996       0.00000000    
  -17.6375008       0.00000000    
  -17.6250000       0.00000000    
  -17.6124992       0.00000000    
  -17.6000004       0.00000000    
  -17.5874996       0.00000000    
  -17.5750008       0.00000000    
  -17.5625000       0.00000000    
  -17.5499992       0.00000000    
  -17.5375004       0.00000000    
  -17.5249996       0.00000000    
  -17.5125008       0.00000000    
  -17.5000000       0.00000000    
  -17.4874992       0.00000000    
  -17.4750004       0.00000000    
  -17.4624996       0.00000000    
  -17.4500008       0.00000000    
  -17.4375000       0.00000000    
  -17.4249992       0.00000000    
  -17.4125004       0.00000000    
  -17.3999996       0.00000000    
  -17.3875008       0.00000000    
  -17.3750000       0.00000000    
  -17.3624992       0.00000000    
  -17.3500004       0.00000000    
  -17.3374996       0.00000000    
  -17.3250008       0.00000000    
  -17.3125000       0.00000000    
  -17.2999992       0.00000000    
  -17.2875004       0.00000000    
  -17.2749996       0.00000000    
  -17.2625008       0.00000000    
  -17.2500000       0.00000000    
  -17.2374992       0.00000000    
  -17.2250004       0.00000000    
  -17.2124996       0.00000000    
  -17.2000008       0.00000000    
  -17.1875000       0.00000000    
  -17.1749992       0.00000000    
  -17.1625004       0.00000000    
  -17.1499996       0.00000000    
  -17.1375008       0.00000000    
  -17.1250000       0.00000000    
  -17.1124992       0.00000000    
  -17.1000004       0.00000000    
  -17.0874996       0.00000000    
  -17.0750008       0.00000000    
  -17.0625000       0.00000000    
  -17.0499992       0.00000000    
  -17.0375004       0.00000000    
  -17.0249996       0.00000000    
  -17.0125008       0.00000000    
  -17.0000000       0.00000000    
  -16.9874992       0.00000000    
  -16.9750004       0.00000000    
  -16.9624996       0.00000000    
  -16.9500008       0.00000000    
  -16.9375000       0.00000000    
  -16.9249992       0.00000000    
  -16.9125004       0.00000000    
  -16.8999996       0.00000000    
  -16.8875008       0.00000000    
  -16.8750000       0.00000000    
  -16.8624992       0.00000000    
  -16.8500004       0.00000000    
  -16.8374996       0.00000000    
  -16.8250008       0.00000000    
  -16.8125000       0.00000000    
  -16.7999992       0.00000000    
  -16.7875004       0.00000000    
  -16.7749996       0.00000000    
  -16.7625008       0.00000000    
  -16.7500000       0.00000000    
  -16.7374992       0.00000000    
  -16.7250004       0.00000000    
  -16.7124996       0.00000000    
  -16.7000008       0.00000000    
  -16.6875000       0.00000000    
  -16.6749992       0.00000000    
  -16.6625004       0.00000000    
  -16.6499996       0.00000000    
  -16.6375008       0.00000000    
  -16.6250000       0.00000000    
  -16.6124992       0.00000000    
  -16.6000004       0.00000000    
  -16.5874996       0.00000000    
  -16.5750008       0.00000000    
  -16.5625000       0.00000000    
  -16.5499992       0.00000000    
  -16.5375004       0.00000000    
  -16.5249996       0.00000000    
  -16.5125008       0.00000000    
  -16.5000000       0.00000000    
  -16.4874992       0.00000000    
  -16.4750004       0.00000000    
  -16.4624996       0.00000000    
  -16.4500008       0.00000000    
  -16.4375000       0.00000000    
  -16.4249992       0.00000000    
  -16.4125004       0.00000000    
  -16.3999996       0.00000000    
  -16.3875008       0.00000000    
  -16.3750000       0.00000000    
  -16.3624992       0.00000000    
  -16.3500004       0.00000000    
  -16.3374996       0.00000000    
  -16.3250008       0.00000000    
  -16.3125000       0.00000000    
  -16.2999992       0.00000000    
  -16.2875004       0.00000000    
  -16.2749996       0.00000000    
  -16.2625008       0.00000000    
  -16.2500000       0.00000000    
  -16.2374992       0.00000000    
  -16.2250004       0.00000000    
  -16.2124996       0.00000000    
  -16.2000008       0.00000000    
  -16.1875000       0.00000000    
  -16.1749992       0.00000000    
  -16.1625004       0.00000000    
  -16.1499996       0.00000000    
  -16.1375008       0.00000000    
  -16.1250000       0.00000000    
  -16.1124992       0.00000000    
  -16.1000004       0.00000000    
  -16.0874996       0.00000000    
  -16.0750008       0.00000000    
  -16.0625000       0.00000000    
  -16.0499992       0.00000000    
  -16.0375004       0.00000000    
  -16.0249996       0.00000000    
  -16.0125008       0.00000000    
  -16.0000000       0.00000000    
  -15.9875002       0.00000000    
  -15.9750004       0.00000000    
  -15.9624996       0.00000000    
  -15.9499998       0.00000000    
  -15.9375000       0.00000000    
  -15.9250002       0.00000000    
  -15.9125004       0.00000000    
  -15.8999996       0.00000000    
  -15.8874998       0.00000000    
  -15.8750000       0.00000000    
  -15.8625002       0.00000000    
  -15.8500004       0.00000000    
  -15.8374996       0.00000000    
  -15.8249998       0.00000000    
  -15.8125000       0.00000000    
  -15.8000002       0.00000000    
  -15.7875004       0.00000000    
  -15.7749996       0.00000000    
  -15.7624998       0.00000000    
  -15.7500000       0.00000000    
  -15.7375002       0.00000000    
  -15.7250004       0.00000000    
  -15.7124996       0.00000000    
  -15.6999998       0.00000000    
  -15.6875000       0.00000000    
  -15.6750002       0.00000000    
  -15.6625004       0.00000000    
  -15.6499996       0.00000000    
  -15.6374998       0.00000000    
  -15.6250000       0.00000000    
  -15.6125002       0.00000000    
  -15.6000004       0.00000000    
  -15.5874996       0.00000000    
  -15.5749998       0.00000000    
  -15.5625000       0.00000000    
  -15.5500002       0.00000000    
  -15.5375004       0.00000000    
  -15.5249996       0.00000000    
  -15.5124998       0.00000000    
  -15.5000000       0.00000000    
  -15.4875002       0.00000000    
  -15.4750004       0.00000000    
  -15.4624996       0.00000000    
  -15.4499998       0.00000000    
  -15.4375000       0.00000000    
  -15.4250002       0.00000000    
  -15.4125004       0.00000000    
  -15.3999996       0.00000000    
  -15.3874998       0.00000000    
  -15.3750000       0.00000000    
  -15.3625002       0.00000000    
  -15.3500004       0.00000000    
  -15.3374996       0.00000000    
  -15.3249998       0.00000000    
  -15.3125000       0.00000000    
  -15.3000002       0.00000000    
  -15.2875004       0.00000000    
  -15.2749996       0.00000000    
  -15.2624998       0.00000000    
  -15.2500000       0.00000000    
  -15.2375002       0.00000000    
  -15.2250004       0.00000000    
  -15.2124996       0.00000000    
  -15.1999998       0.00000000    
  -15.1875000       0.00000000    
  -15.1750002       0.00000000    
  -15.1625004       0.00000000    
  -15.1499996       0.00000000    
  -15.1374998       0.00000000    
  -15.1250000       0.00000000    
  -15.1125002       0.00000000    
  -15.1000004       0.00000000    
  -15.0874996       0.00000000    
  -15.0749998       0.00000000    
  -15.0625000       0.00000000    
  -15.0500002       0.00000000    
  -15.0375004       0.00000000    
  -15.0249996       0.00000000    
  -15.0124998       0.00000000    
  -15.0000000       0.00000000    
  -14.9875002       0.00000000    
  -14.9750004       0.00000000    
  -14.9624996       0.00000000    
  -14.9499998       0.00000000    
  -14.9375000       0.00000000    
  -14.9250002       0.00000000    
  -14.9125004       0.00000000    
  -14.8999996       0.00000000    
  -14.8874998       0.00000000    
  -14.8750000       0.00000000    
  -14.8625002       0.00000000    
  -14.8500004       0.00000000    
  -14.8374996       0.00000000    
  -14.8249998       0.00000000    
  -14.8125000       0.00000000    
  -14.8000002       0.00000000    
  -14.7875004       0.00000000    
  -14.7749996       0.00000000    
  -14.7624998       0.00000000    
  -14.7500000       0.00000000    
  -14.7375002       0.00000000    
  -14.7250004       0.00000000    
  -14.7124996       0.00000000    
  -14.6999998       0.00000000    
  -14.6875000       0.00000000    
  -14.6750002       0.00000000    
  -14.6625004       0.00000000    
  -14.6499996       0.00000000    
  -14.6374998       0.00000000    
  -14.6250000       0.00000000    
  -14.6125002       0.00000000    
  -14.6000004       0.00000000    
  -14.5874996       0.00000000    
  -14.5749998       0.00000000    
  -14.5625000       0.00000000    
  -14.5500002       0.00000000    
  -14.5375004       0.00000000    
  -14.5249996       0.00000000    
  -14.5124998       0.00000000    
  -14.5000000       0.00000000    
  -14.4875002       0.00000000    
  -14.4750004       0.00000000    
  -14.4624996       0.00000000    
  -14.4499998       0.00000000    
  -14.4375000       0.00000000    
  -14.4250002       0.00000000    
  -14.4125004       0.00000000    
  -14.3999996       0.00000000    
  -14.3874998       0.00000000    
  -14.3750000       0.00000000    
  -14.3625002       0.00000000    
  -14.3500004       0.00000000    
  -14.3374996       0.00000000    
  -14.3249998       0.00000000    
  -14.3125000       0.00000000    
  -14.3000002       0.00000000    
  -14.2875004       0.00000000    
  -14.2749996       0.00000000    
  -14.2624998       0.00000000    
  -14.2500000       0.00000000    
  -14.2375002       0.00000000    
  -14.2250004       0.00000000    
  -14.2124996       0.00000000    
  -14.1999998       0.00000000    
  -14.1875000       0.00000000    
  -14.1750002       0.00000000    
  -14.1625004       0.00000000    
  -14.1499996       0.00000000    
  -14.1374998       0.00000000    
  -14.1250000       0.00000000    
  -14.1125002       0.00000000    
  -14.1000004       0.00000000    
  -14.0874996       0.00000000    
  -14.0749998       0.00000000    
  -14.0625000       0.00000000    
  -14.0500002       0.00000000    
  -14.0375004       0.00000000    
  -14.0249996       0.00000000    
  -14.0124998       0.00000000    
  -14.0000000       0.00000000    
  -13.9875002       0.00000000    
  -13.9750004       0.00000000    
  -13.9624996       0.00000000    
  -13.9499998       0.00000000    
  -13.9375000       0.00000000    
  -13.9250002       0.00000000    
  -13.9125004       0.00000000    
  -13.8999996       0.00000000    
  -13.8874998       0.00000000    
  -13.8750000       0.00000000    
  -13.8625002       0.00000000    
  -13.8500004       0.00000000    
  -13.8374996       0.00000000    
  -13.8249998       0.00000000    
  -13.8125000       0.00000000    
  -13.8000002       0.00000000    
  -13.7875004       0.00000000    
  -13.7749996       0.00000000    
  -13.7624998       0.00000000    
  -13.7500000       0.00000000    
  -13.7375002       0.00000000    
  -13.7250004       0.00000000    
  -13.7124996       0.00000000    
  -13.6999998       0.00000000    
  -13.6875000       0.00000000    
  -13.6750002       0.00000000    
  -13.6625004       0.00000000    
  -13.6499996       0.00000000    
  -13.6374998       0.00000000    
  -13.6250000       0.00000000    
  -13.6125002       0.00000000    
  -13.6000004       0.00000000    
  -13.5874996       0.00000000    
  -13.5749998       0.00000000    
  -13.5625000       0.00000000    
  -13.5500002       0.00000000    
  -13.5375004       0.00000000    
  -13.5249996       0.00000000    
  -13.5124998       0.00000000    
  -13.5000000       0.00000000    
  -13.4875002       0.00000000    
  -13.4750004       0.00000000    
  -13.4624996       0.00000000    
  -13.4499998       0.00000000    
  -13.4375000       0.00000000    
  -13.4250002       0.00000000    
  -13.4125004       0.00000000    
  -13.3999996       0.00000000    
  -13.3874998       0.00000000    
  -13.3750000       0.00000000    
  -13.3625002       0.00000000    
  -13.3500004       0.00000000    
  -13.3374996       0.00000000    
  -13.3249998       0.00000000    
  -13.3125000       0.00000000    
  -13.3000002       0.00000000    
  -13.2875004       0.00000000    
  -13.2749996       0.00000000    
  -13.2624998       0.00000000    
  -13.2500000       0.00000000    
  -13.2375002       0.00000000    
  -13.2250004       0.00000000    
  -13.2124996       0.00000000    
  -13.1999998       0.00000000    
  -13.1875000       0.00000000    
  -13.1750002       0.00000000    
  -13.1625004       0.00000000    
  -13.1499996       0.00000000    
  -13.1374998       0.00000000    
  -13.1250000       0.00000000    
  -13.1125002       0.00000000    
  -13.1000004       0.00000000    
  -13.0874996       0.00000000    
  -13.0749998       0.00000000    
  -13.0625000       0.00000000    
  -13.0500002       0.00000000    
  -13.0375004       0.00000000    
  -13.0249996       0.00000000    
  -13.0124998       0.00000000    
  -13.0000000       0.00000000    
  -12.9875002       0.00000000    
  -12.9750004       0.00000000    
  -12.9624996       0.00000000    
  -12.9499998       0.00000000    
  -12.9375000       0.00000000    
  -12.9250002       0.00000000    
  -12.9125004       0.00000000    
  -12.8999996       0.00000000    
  -12.8874998       0.00000000    
  -12.8750000       0.00000000    
  -12.8625002       0.00000000    
  -12.8500004       0.00000000    
  -12.8374996       0.00000000    
  -12.8249998       0.00000000    
  -12.8125000       0.00000000    
  -12.8000002       0.00000000    
  -12.7875004       0.00000000    
  -12.7749996       0.00000000    
  -12.7624998       0.00000000    
  -12.7500000       0.00000000    
  -12.7375002       0.00000000    
  -12.7250004       0.00000000    
  -12.7124996       0.00000000    
  -12.6999998       0.00000000    
  -12.6875000       0.00000000    
  -12.6750002       0.00000000    
  -12.6625004       0.00000000    
  -12.6499996       0.00000000    
  -12.6374998       0.00000000    
  -12.6250000       0.00000000    
  -12.6125002       0.00000000    
  -12.6000004       0.00000000    
  -12.5874996       0.00000000    
  -12.5749998       0.00000000    
  -12.5625000       0.00000000    
  -12.5500002       0.00000000    
  -12.5375004       0.00000000    
  -12.5249996       0.00000000    
  -12.5124998       0.00000000    
  -12.5000000       0.00000000    
  -12.4875002       0.00000000    
  -12.4750004       0.00000000    
  -12.4624996       0.00000000    
  -12.4499998       0.00000000    
  -12.4375000       0.00000000    
  -12.4250002       0.00000000    
  -12.4125004       0.00000000    
  -12.3999996       0.00000000    
  -12.3874998       0.00000000    
  -12.3750000       0.00000000    
  -12.3625002       0.00000000    
  -12.3500004       0.00000000    
  -12.3374996       0.00000000    
  -12.3249998       0.00000000    
  -12.3125000       0.00000000    
  -12.3000002       0.00000000    
  -12.2875004       0.00000000    
  -12.2749996       0.00000000    
  -12.2624998       0.00000000    
  -12.2500000       0.00000000    
  -12.2375002       0.00000000    
  -12.2250004       0.00000000    
  -12.2124996       0.00000000    
  -12.1999998       0.00000000    
  -12.1875000       0.00000000    
  -12.1750002       0.00000000    
  -12.1625004       0.00000000    
  -12.1499996       0.00000000    
  -12.1374998       0.00000000    
  -12.1250000       0.00000000    
  -12.1125002       0.00000000    
  -12.1000004       0.00000000    
  -12.0874996       0.00000000    
  -12.0749998       0.00000000    
  -12.0625000       0.00000000    
  -12.0500002       0.00000000    
  -12.0375004       0.00000000    
  -12.0249996       0.00000000    
  -12.0124998       0.00000000    
  -12.0000000       0.00000000    
  -11.9875002       0.00000000    
  -11.9750004       0.00000000    
  -11.9624996       0.00000000    
  -11.9499998       0.00000000    
  -11.9375000       0.00000000    
  -11.9250002       0.00000000    
  -11.9125004       0.00000000    
  -11.8999996       0.00000000    
  -11.8874998       0.00000000    
  -11.8750000       0.00000000    
  -11.8625002       0.00000000    
  -11.8500004       0.00000000    
  -11.8374996       0.00000000    
  -11.8249998       0.00000000    
  -11.8125000       0.00000000    
  -11.8000002       0.00000000    
  -11.7875004       0.00000000    
  -11.7749996       0.00000000    
  -11.7624998       0.00000000    
  -11.7500000       0.00000000    
  -11.7375002       0.00000000    
  -11.7250004       0.00000000    
  -11.7124996       0.00000000    
  -11.6999998       0.00000000    
  -11.6875000       0.00000000    
  -11.6750002       0.00000000    
  -11.6625004       0.00000000    
  -11.6499996       0.00000000    
  -11.6374998       0.00000000    
  -11.6250000       0.00000000    
  -11.6125002       0.00000000    
  -11.6000004       0.00000000    
  -11.5874996       0.00000000    
  -11.5749998       0.00000000    
  -11.5625000       0.00000000    
  -11.5500002       0.00000000    
  -11.5375004       0.00000000    
  -11.5249996       0.00000000    
  -11.5124998       0.00000000    
  -11.5000000       0.00000000    
  -11.4875002       0.00000000    
  -11.4750004       0.00000000    
  -11.4624996       0.00000000    
  -11.4499998       0.00000000    
  -11.4375000       0.00000000    
  -11.4250002       0.00000000    
  -11.4125004       0.00000000    
  -11.3999996       0.00000000    
  -11.3874998       0.00000000    
  -11.3750000       0.00000000    
  -11.3625002       0.00000000    
  -11.3500004       0.00000000    
  -11.3374996       0.00000000    
  -11.3249998       0.00000000    
  -11.3125000       0.00000000    
  -11.3000002       0.00000000    
  -11.2875004       0.00000000    
  -11.2749996       0.00000000    
  -11.2624998       0.00000000    
  -11.2500000       0.00000000    
  -11.2375002       0.00000000    
  -11.2250004       0.00000000    
  -11.2124996       0.00000000    
  -11.1999998       0.00000000    
  -11.1875000       0.00000000    
  -11.1750002       0.00000000    
  -11.1625004       0.00000000    
  -11.1499996       0.00000000    
  -11.1374998       0.00000000    
  -11.1250000       0.00000000    
  -11.1125002       0.00000000    
  -11.1000004       0.00000000    
  -11.0874996       0.00000000    
  -11.0749998       0.00000000    
  -11.0625000       0.00000000    
  -11.0500002       0.00000000    
  -11.0375004       0.00000000    
  -11.0249996       0.00000000    
  -11.0124998       0.00000000    
  -11.0000000       0.00000000    
  -10.9875002       0.00000000    
  -10.9750004       0.00000000    
  -10.9624996       0.00000000    
  -10.9499998       0.00000000    
  -10.9375000       0.00000000    
  -10.9250002       0.00000000    
  -10.9125004       0.00000000    
  -10.8999996       0.00000000    
  -10.8874998       0.00000000    
  -10.8750000       0.00000000    
  -10.8625002       0.00000000    
  -10.8500004       0.00000000    
  -10.8374996       0.00000000    
  -10.8249998       0.00000000    
  -10.8125000       0.00000000    
  -10.8000002       0.00000000    
  -10.7875004       0.00000000    
  -10.7749996       0.00000000    
  -10.7624998       0.00000000    
  -10.7500000       0.00000000    
  -10.7375002       0.00000000    
  -10.7250004       0.00000000    
  -10.7124996       0.00000000    
  -10.6999998       0.00000000    
  -10.6875000       0.00000000    
  -10.6750002       0.00000000    
  -10.6625004       0.00000000    
  -10.6499996       0.00000000    
  -10.6374998       0.00000000    
  -10.6250000       0.00000000    
  -10.6125002       0.00000000    
  -10.6000004       0.00000000    
  -10.5874996       0.00000000    
  -10.5749998       0.00000000    
  -10.5625000       0.00000000    
  -10.5500002       0.00000000    
  -10.5375004       0.00000000    
  -10.5249996       0.00000000    
  -10.5124998       0.00000000    
  -10.5000000       0.00000000    
  -10.4875002       0.00000000    
  -10.4750004       0.00000000    
  -10.4624996       0.00000000    
  -10.4499998       0.00000000    
  -10.4375000       0.00000000    
  -10.4250002       0.00000000    
  -10.4125004       0.00000000    
  -10.3999996       0.00000000    
  -10.3874998       0.00000000    
  -10.3750000       0.00000000    
  -10.3625002       0.00000000    
  -10.3500004       0.00000000    
  -10.3374996       0.00000000    
  -10.3249998       0.00000000    
  -10.3125000       0.00000000    
  -10.3000002       0.00000000    
  -10.2875004       0.00000000    
  -10.2749996       0.00000000    
  -10.2624998       0.00000000    
  -10.2500000       0.00000000    
  -10.2375002       0.00000000    
  -10.2250004       0.00000000    
  -10.2124996       0.00000000    
  -10.1999998       0.00000000    
  -10.1875000       0.00000000    
  -10.1750002       0.00000000    
  -10.1625004       0.00000000    
  -10.1499996       0.00000000    
  -10.1374998       0.00000000    
  -10.1250000       0.00000000    
  -10.1125002       0.00000000    
  -10.1000004       0.00000000    
  -10.0874996       0.00000000    
  -10.0749998       0.00000000    
  -10.0625000       0.00000000    
  -10.0500002       0.00000000    
  -10.0375004       0.00000000    
  -10.0249996       0.00000000    
  -10.0124998       0.00000000    
  -10.0000000       0.00000000    
  -9.98750019       0.00000000    
  -9.97500038       0.00000000    
  -9.96249962       0.00000000    
  -9.94999981       0.00000000    
  -9.93750000       0.00000000    
  -9.92500019       0.00000000    
  -9.91250038       0.00000000    
  -9.89999962       0.00000000    
  -9.88749981       0.00000000    
  -9.87500000       0.00000000    
  -9.86250019       0.00000000    
  -9.85000038       0.00000000    
  -9.83749962       0.00000000    
  -9.82499981       0.00000000    
  -9.81250000       0.00000000    
  -9.80000019       0.00000000    
  -9.78750038       0.00000000    
  -9.77499962       0.00000000    
  -9.76249981       0.00000000    
  -9.75000000       0.00000000    
  -9.73750019       0.00000000    
  -9.72500038       0.00000000    
  -9.71249962       0.00000000    
  -9.69999981       0.00000000    
  -9.68750000       0.00000000    
  -9.67500019       0.00000000    
  -9.66250038       0.00000000    
  -9.64999962       0.00000000    
  -9.63749981       0.00000000    
  -9.62500000       0.00000000    
  -9.61250019       0.00000000    
  -9.60000038       0.00000000    
  -9.58749962       0.00000000    
  -9.57499981       0.00000000    
  -9.56250000       0.00000000    
  -9.55000019       0.00000000    
  -9.53750038       0.00000000    
  -9.52499962       0.00000000    
  -9.51249981       0.00000000    
  -9.50000000       0.00000000    
  -9.48750019       0.00000000    
  -9.47500038       0.00000000    
  -9.46249962       0.00000000    
  -9.44999981       0.00000000    
  -9.43750000       0.00000000    
  -9.42500019       0.00000000    
  -9.41250038       0.00000000    
  -9.39999962       0.00000000    
  -9.38749981       0.00000000    
  -9.37500000       0.00000000    
  -9.36250019       0.00000000    
  -9.35000038       0.00000000    
  -9.33749962       0.00000000    
  -9.32499981       0.00000000    
  -9.31250000       0.00000000    
  -9.30000019       0.00000000    