  -20.0000000       0.00000000    
  -19.9274998       0.00000000    
  -19.8549995       0.00000000    
  -19.7824993       0.00000000    
  -19.7099991       0.00000000    
  -19.6375008       0.00000000    
  -19.5650005       0.00000000    
  -19.4925003       0.00000000    
  -19.4200001       0.00000000    
  -19.3474998       0.00000000    
  -19.2749996       0.00000000    
  -19.2024994       0.00000000    
  -19.1299992       0.00000000    
  -19.0575008       0.00000000    
  -18.9850006       0.00000000    
  -18.9125004       0.00000000    
  -18.8400002       0.00000000    
  -18.7674999       0.00000000    
  -18.6949997       0.00000000    
  -18.6224995       0.00000000    
  -18.5499992       0.00000000    
  -18.4775009       0.00000000    
  -18.4050007       0.00000000    
  -18.3325005       0.00000000    
  -18.2600002       0.00000000    
  -18.1875000       0.00000000    
  -18.1149998       0.00000000    
  -18.0424995       0.00000000    
  -17.9699993       0.00000000    
  -17.8974991       0.00000000    
  -17.8250008       0.00000000    
  -17.7525005       0.00000000    
  -17.6800003       0.00000000    
  -17.6075001       0.00000000    
  -17.5349998       0.00000000    
  -17.4624996       0.00000000    
  -17.3899994       0.00000000    
  -17.3174992       0.00000000    
  -17.2450008       0.00000000    
  -17.1725006       0.00000000    
  -17.1000004       0.00000000    
  -17.0275002       0.00000000    
  -16.9549999       0.00000000    
  -16.8824997       0.00000000    
  -16.8099995       0.00000000    
  -16.7374992       0.00000000    
  -16.6650009       0.00000000    
  -16.5925007       0.00000000    
  -16.5200005       0.00000000    
  -16.4475002       0.00000000    
  -16.3750000       0.00000000    
  -16.3024998       0.00000000    
  -16.2299995       0.00000000    
  -16.1574993       0.00000000    
  -16.0849991       0.00000000    
  -16.0125008       0.00000000    
  -15.9399996       0.00000000    
  -15.8675003       0.00000000    
  -15.7950001       0.00000000    
  -15.7224998       0.00000000    
  -15.6499996       0.00000000    
  -15.5775003       0.00000000    
  -15.5050001       0.00000000    
  -15.4324999       0.00000000    
  -15.3599997       0.00000000    
  -15.2875004       0.00000000    
  -15.2150002       0.00000000    
  -15.1424999       0.00000000    
  -15.0699997       0.00000000    
  -14.9975004       0.00000000    
  -14.9250002       0.00000000    
  -14.8525000       0.00000000    
  -14.7799997       0.00000000    
  -14.7075005       0.00000000    
  -14.6350002       0.00000000    
  -14.5625000       0.00000000    
  -14.4899998       0.00000000    
  -14.4174995       0.00000000    
  -14.3450003       0.00000000    
  -14.2725000       0.00000000    
  -14.1999998       0.00000000    
  -14.1274996       0.00000000    
  -14.0550003       0.00000000    
  -13.9825001       0.00000000    
  -13.9099998       0.00000000    
  -13.8374996       0.00000000    
  -13.7650003       0.00000000    
  -13.6925001       0.00000000    
  -13.6199999       0.00000000    
  -13.5474997       0.00000000    
  -13.4750004       0.00000000    
  -13.4025002       0.00000000    
  -13.3299999       0.00000000    
  -13.2574997       0.00000000    
  -13.1850004       0.00000000    
  -13.1125002       0.00000000    
  -13.0400000       0.00000000    
  -12.9674997       0.00000000    
  -12.8950005       0.00000000    
  -12.8225002       0.00000000    
  -12.7500000       0.00000000    
  -12.6774998       0.00000000    
  -12.6049995       0.00000000    
  -12.5325003       0.00000000    
  -12.4600000       0.00000000    
  -12.3874998       0.00000000    
  -12.3149996       0.00000000    
  -12.2425003       0.00000000    
  -12.1700001       0.00000000    
  -12.0974998       0.00000000    
  -12.0249996       0.00000000    
  -11.9525003       0.00000000    
  -11.8800001       0.00000000    
  -11.8074999       0.00000000    
  -11.7349997       0.00000000    
  -11.6625004       0.00000000    
  -11.5900002       0.00000000    
  -11.5174999       0.00000000    
  -11.4449997       0.00000000    
  -11.3725004       0.00000000    
  -11.3000002       0.00000000    
  -11.2275000       0.00000000    
  -11.1549997       0.00000000    
  -11.0825005       0.00000000    
  -11.0100002       0.00000000    
  -10.9375000       0.00000000    
  -10.8649998       0.00000000    
  -10.7924995       0.00000000    
  -10.7200003       0.00000000    
  -10.6475000       0.00000000    
  -10.5749998       0.00000000    
  -10.5024996       0.00000000    
  -10.4300003       0.00000000    
  -10.3575001       0.00000000    
  -10.2849998       0.00000000    
  -10.2124996       0.00000000    
  -10.1400003       0.00000000    
  -10.0675001       0.00000000    
  -9.99499989       0.00000000    
  -9.92249966       0.00000000    
  -9.85000038       0.00000000    
  -9.77750015       0.00000000    
  -9.70499992       0.00000000    
  -9.63249969       0.00000000    
  -9.56000042       0.00000000    
  -9.48750019       0.00000000    
  -9.41499996       0.00000000    
  -9.34249973       0.00000000    
  -9.27000046       0.00000000    
  -9.19750023       0.00000000    
  -9.12500000       0.00000000    
  -9.05249977       0.00000000    
  -8.97999954       0.00000000    
  -8.90750027       0.00000000    
  -8.83500004       0.00000000    
  -8.76249981       0.00000000    
  -8.68999958       0.00000000    
  -8.61750031       0.00000000    
  -8.54500008       0.00000000    
  -8.47249985       0.00000000    
  -8.39999962       0.00000000    
  -8.32750034       0.00000000    
  -8.25500011       0.00000000    
  -8.18249989       0.00000000    
  -8.10999966       0.00000000    
  -8.03750038       0.00000000    
  -7.96500015       0.00000000    
  -7.89249992       0.00000000    
  -7.82000017       0.00000000    
  -7.74749994       0.00000000    
  -7.67500019       0.00000000    
  -7.60249996       0.00000000    
  -7.53000021       0.00000000    
  -7.45749998       0.00000000    
  -7.38500023       0.00000000    
  -7.31250000       0.00000000    
  -7.23999977       0.00000000    
  -7.16750002       0.00000000    
  -7.09499979       0.00000000    
  -7.02250004       0.00000000    
  -6.94999981       0.00000000    
  -6.87750006       0.00000000    
  -6.80499983       0.00000000    
  -6.73250008       0.00000000    
  -6.65999985       0.00000000    
  -6.58750010       0.00000000    
  -6.51499987       0.00000000    
  -6.44250011       0.00000000    
  -6.36999989       0.00000000    
  -6.29750013       0.00000000    
  -6.22499990       0.00000000    
  -6.15250015       0.00000000    
  -6.07999992       0.00000000    
  -6.00750017       0.00000000    
  -5.93499994       0.00000000    
  -5.86250019       0.00000000    
  -5.78999996       0.00000000    
  -5.71750021       0.00000000    
  -5.64499998       0.00000000    
  -5.57250023       0.00000000    
  -5.50000000       0.00000000    
  -5.42749977       0.00000000    
  -5.35500002       0.00000000    
  -5.28249979       0.00000000    
  -5.21000004       0.00000000    
  -5.13749981       0.00000000    
  -5.06500006       0.00000000    
  -4.99249983       0.00000000    
  -4.92000008       0.00000000    
  -4.84749985       0.00000000    
  -4.77500010       0.00000000    
  -4.70249987       0.00000000    
  -4.63000011       0.00000000    
  -4.55749989       0.00000000    
  -4.48500013       0.00000000    
  -4.41249990       0.00000000    
  -4.34000015       0.00000000    
  -4.26749992       0.00000000    
  -4.19500017       0.00000000    
  -4.12249994       0.00000000    
  -4.05000019       0.00000000    
  -3.97749996       0.00000000    
  -3.90499997       0.00000000    
  -3.83249998       0.00000000    
  -3.75999999       0.00000000    
  -3.68750000       0.00000000    
  -3.61500001       0.00000000    
  -3.54250002       0.00000000    
  -3.47000003       0.00000000    
  -3.39750004       0.00000000    
  -3.32500005       0.00000000    
  -3.25250006       0.00000000    
  -3.18000007       0.00000000    
  -3.10750008       0.00000000    
  -3.03500009       0.00000000    
  -2.96250010       0.00000000    
  -2.89000010       0.00000000    
  -2.81750011       0.00000000    
  -2.74499989       0.00000000    
  -2.67249990       0.00000000    
  -2.59999990       0.00000000    
  -2.52749991       0.00000000    
  -2.45499992       0.00000000    
  -2.38249993       0.00000000    
  -2.30999994       0.00000000    
  -2.23749995       0.00000000    
  -2.16499996       0.00000000    
  -2.09249997       0.00000000    
  -2.01999998       0.00000000    
  -1.94749999       0.00000000    
  -1.87500000       0.00000000    
  -1.80250001       0.00000000    
  -1.73000002       0.00000000    
  -1.65750003       0.00000000    
  -1.58500004       0.00000000    
  -1.51250005       0.00000000    
  -1.44000006       0.00000000    
  -1.36749995       0.00000000    
  -1.29499996       0.00000000    
  -1.22249997       0.00000000    
  -1.14999998       0.00000000    
  -1.07749999       0.00000000    
  -1.00500000       0.00000000    
 -0.932500005       0.00000000    
 -0.860000014       0.00000000    
 -0.787500024       0.00000000    
 -0.714999974       0.00000000    
 -0.642499983       0.00000000    
 -0.569999993       0.00000000    
 -0.497500002       0.00000000    
 -0.425000012       0.00000000    
 -0.352499992       0.00000000    
 -0.280000001       0.00000000    
 -0.207499996       0.00000000    
 -0.135000005       0.00000000    
  -6.25000000E-02   0.00000000    
   9.99999978E-03   0.00000000    
   8.25000033E-02   0.00000000    
  0.155000001       0.00000000    
  0.227500007       0.00000000    
  0.300000012       0.00000000    
  0.372500002       0.00000000    
  0.444999993       0.00000000    
  0.517499983       0.00000000    
  0.589999974       0.00000000    
  0.662500024       0.00000000    
  0.735000014       0.00000000    
  0.807500005       0.00000000    
  0.879999995       0.00000000    
  0.952499986       0.00000000    
   1.02499998       0.00000000    
   1.09749997       0.00000000    
   1.16999996       0.00000000    
   1.24249995       0.00000000    
   1.31500006       0.00000000    
   1.38750005       0.00000000    
   1.46000004       0.00000000    
   1.53250003       0.00000000    
   1.60500002       0.00000000    
   1.67750001       0.00000000    
   1.75000000       0.00000000    
   1.82249999       0.00000000    
   1.89499998       0.00000000    
   1.96749997       0.00000000    
   2.03999996       0.00000000    
   2.11249995       0.00000000    
   2.18499994      -0.00000000    
   2.25749993      -0.00000000    
   2.32999992       0.00000000    
   2.40249991       0.00000000    
   2.47499990       0.00000000    
   2.54749990       0.00000000    
   2.61999989       0.00000000    
   2.69250011      -1.99650363E-38
   2.76500010      -7.04834238E-38
   2.83750010      -6.63198858E-38
   2.91000009       2.49880574E-37
   2.98250008       9.79554800E-37
   3.05500007       1.70435417E-36
   3.12750006       1.89087650E-37
   3.20000005      -7.01975394E-36
   3.27250004      -1.94650299E-35
   3.34500003      -2.22169896E-35
   3.41750002       2.02691429E-35
   3.49000001       1.54699775E-34
   3.56250000       3.45941972E-34
   3.63499999       3.25817532E-34
   3.70749998      -4.75622417E-34
   3.77999997      -2.55906314E-33
   3.85249996      -5.13297130E-33
   3.92499995      -4.33198027E-33
   3.99749994       7.03004911E-33
   4.07000017       3.39960431E-32
   4.14249992       6.49745569E-32
   4.21500015       5.37371365E-32
   4.28749990      -7.81631215E-32
   4.36000013      -3.78204657E-31
   4.43249989      -7.16134198E-31
   4.50500011      -6.21795557E-31
   4.57749987       6.62606323E-31
   4.65000010       3.57404261E-30
   4.72249985       6.92764599E-30
   4.79500008       6.58022478E-30
   4.86749983      -4.03029956E-30
   4.94000006      -2.88684832E-29
   5.01249981      -5.90423676E-29
   5.08500004      -6.25596815E-29
   5.15749979       1.18643875E-29
   5.23000002       1.98848776E-28
   5.30249977       4.43643548E-28
   5.37500000       5.28609077E-28
   5.44750023       9.10940549E-29
   5.51999998      -1.15079649E-27
   5.59250021      -2.93241207E-27
   5.66499996      -3.94909470E-27
   5.73750019      -1.88150818E-27
   5.80999994       5.36240796E-27
   5.88250017       1.69435012E-26
   5.95499992       2.60126236E-26
   6.02750015       1.91904528E-26
   6.09999990      -1.74991274E-26
   6.17250013      -8.44215768E-26
   6.24499989      -1.50611851E-25
   6.31750011      -1.46812154E-25
   6.38999987       1.05312430E-26
   6.46250010       3.52013180E-25
   6.53499985       7.61896456E-25
   6.60750008       9.21275448E-25
   6.67999983       3.84643179E-25
   6.75250006      -1.13603928E-24
   6.82499981      -3.32410405E-24
   6.89750004      -4.89360791E-24
   6.96999979      -3.73391493E-24
   7.04250002       2.03942869E-24
   7.11499977       1.21527375E-23
   7.18750000       2.22053380E-23
   7.26000023       2.33732923E-23
   7.33249998       5.68290505E-24
   7.40500021      -3.45418493E-23
   7.47749996      -8.54795919E-23
   7.55000019      -1.15024679E-22
   7.62249994      -7.85032279E-23
   7.69500017       5.61504818E-23
   7.76749992       2.70812819E-22
   7.84000015       4.66817995E-22
   7.91249990       4.72582612E-22
   7.98500013       1.15706975E-22
   8.05749989      -6.42886196E-22
   8.13000011      -1.56601193E-21
   8.20250034      -2.09200116E-21
   8.27499962      -1.49488581E-21
   8.34749985       7.02484751E-22
   8.42000008       4.17456164E-21
   8.49250031       7.40249262E-21
   8.56499958       7.86010283E-21
   8.63749981       3.07422119E-21
   8.71000004      -7.56127171E-21
   8.78250027      -2.09703630E-20
   8.85499954      -2.98702060E-20
   8.92749977      -2.48224058E-20
   9.00000000       7.72487384E-22
   9.07250023       4.41684850E-20
   9.14500046       8.86939371E-20
   9.21749973       1.05500632E-19
   9.28999996       6.46359254E-20
   9.36250019      -4.58982973E-20
   9.43500042      -2.00598730E-19
   9.50749969      -3.28938840E-19
   9.57999992      -3.32245210E-19
   9.65250015      -1.29064035E-19
   9.72500038       2.82731341E-19
   9.79749966       7.76444559E-19
   9.86999989       1.09817832E-18
   9.94250011       9.48232188E-19
   10.0150003       1.37677634E-19
   10.0874996      -1.23334522E-18
   10.1599998      -2.67185852E-18
   10.2325001      -3.36637590E-18
   10.3050003      -2.49156003E-18
   10.3774996       3.14228621E-19
   10.4499998       4.48844537E-18
   10.5225000       8.37918823E-18
   10.5950003       9.62344654E-18
   10.6674995       6.12716833E-18
   10.7399998      -2.61167451E-18
   10.8125000      -1.44190749E-17
   10.8850002      -2.43287533E-17
   10.9575005      -2.59656676E-17
   11.0299997      -1.43727975E-17
   11.1025000       1.06043041E-17
   11.1750002       4.19753993E-17
   11.2475004       6.60587430E-17
   11.3199997       6.67412199E-17
   11.3924999       3.29411940E-17
   11.4650002      -3.33135841E-17
   11.5375004      -1.12213482E-16
   11.6099997      -1.68803833E-16
   11.6824999      -1.64601094E-16
   11.7550001      -7.58430191E-17
   11.8275003       8.83573419E-17
   11.8999996       2.77289655E-16
   11.9724998       4.07486005E-16
   12.0450001       3.91429119E-16
   12.1175003       1.79270420E-16
   12.1899996      -2.02358672E-16
   12.2624998      -6.34701004E-16
   12.3350000      -9.30442717E-16
   12.4075003      -8.98929809E-16
   12.4799995      -4.35982999E-16
   12.5524998       3.96461474E-16
   12.6250000       1.34238258E-15
   12.6975002       2.00577042E-15
   12.7700005       1.98795710E-15
   12.8424997       1.07038654E-15
   12.9150000      -6.28028238E-16
   12.9875002      -2.59948207E-15
   13.0600004      -4.05713112E-15
   13.1324997      -4.20336415E-15
   13.2049999      -2.58035988E-15
   13.2775002       6.31607693E-16
   13.3500004       4.51524380E-15
   13.4224997       7.61298221E-15
   13.4949999       8.40882133E-15
   13.5675001       5.95662156E-15
   13.6400003       4.19651171E-16
   13.7124996      -6.72903726E-15
   13.7849998      -1.30055937E-14
   13.8575001      -1.56964709E-14
   13.9300003      -1.28995232E-14
   14.0024996      -4.45300975E-15
   14.0749998       7.64214131E-15
   14.1475000       1.95670794E-14
   14.2200003       2.67967242E-14
   14.2924995       2.56791607E-14
   14.3649998       1.49579276E-14
   14.4375000      -3.34295275E-15
   14.5100002      -2.40955903E-14
   14.5825005      -4.03984300E-14
   14.6549997      -4.57451256E-14
   14.7275000      -3.63745661E-14
   14.8000002      -1.29951744E-14
   14.8725004       1.88052393E-14
   14.9449997       4.97770363E-14
   15.0174999       6.96344905E-14
   15.0900002       7.03505451E-14
   15.1625004       4.90621642E-14
   15.2349997       9.55173474E-15
   15.3074999      -3.83283425E-14
   15.3800001      -8.12467972E-14
   15.4525003      -1.06243221E-13
   15.5249996      -1.04597802E-13
   15.5974998      -7.44480703E-14
   15.6700001      -2.13345373E-14
   15.7425003       4.33694117E-14
   15.8149996       1.05422974E-13
   15.8874998       1.50944686E-13
   15.9600000       1.68893369E-13
   16.0324993       1.52390063E-13
   16.1049995       9.92030283E-14
   16.1774998       1.21739217E-14
   16.2500000      -9.97702423E-14
   16.3225002      -2.20105970E-13
   16.3950005      -3.23788468E-13
   16.4675007      -3.78711060E-13
   16.5400009      -3.51238054E-13
   16.6124992      -2.16305855E-13
   16.6849995       2.95092997E-14
   16.7574997       3.55917769E-13
   16.8299999       6.93447470E-13
   16.9025002       9.40118534E-13
   16.9750004       9.83311956E-13
   17.0475006       7.35005210E-13
   17.1200008       1.72330764E-13
   17.1924992      -6.30055253E-13
   17.2649994      -1.49134719E-12
   17.3374996      -2.15161005E-12
   17.4099998      -2.33638738E-12
   17.4825001      -1.84663027E-12
   17.5550003      -6.47988553E-13
   17.6275005       1.07358371E-12
   17.7000008       2.91848577E-12
   17.7724991       4.35398419E-12
   17.8449993       4.85511327E-12
   17.9174995       4.06833898E-12
   17.9899998       1.94727524E-12
   18.0625000      -1.18570540E-12
   18.1350002      -4.67648619E-12
   18.2075005      -7.66885860E-12
   18.2800007      -9.29378709E-12
   18.3525009      -8.87216429E-12
   18.4249992      -6.08889892E-12
   18.4974995      -1.11119783E-12
   18.5699997       5.36163128E-12
   18.6424999       1.21253658E-11
   18.7150002       1.75906685E-11
   18.7875004       2.00188425E-11
   18.8600006       1.78881840E-11
   18.9325008       1.03673381E-11
   19.0049992      -2.19338133E-12
   19.0774994      -1.79115594E-11
   19.1499996      -3.33580247E-11
   19.2224998      -4.40380336E-11
   19.2950001      -4.54062413E-11
   19.3675003      -3.42639077E-11
   19.4400005      -1.01874403E-11
   19.5125008       2.34924944E-11
   19.5849991       5.96298913E-11
   19.6574993       8.84015569E-11
   19.7299995       9.95898294E-11
   19.8024998       8.55596149E-11
   19.8750000       4.41507317E-11
   19.9475002      -1.94296627E-11
   20.0200005      -9.24956292E-11
   20.0925007      -1.56930052E-10
   20.1650009      -1.93187660E-10
   20.2374992      -1.85445131E-10
   20.3099995      -1.26642086E-10
   20.3824997      -2.20098991E-11
   20.4549999       1.10092852E-10
   20.5275002       2.40658465E-10
   20.6000004       3.35667105E-10
   20.6725006       3.63915315E-10
   20.7450008       3.05408032E-10
   20.8174992       1.58338648E-10
   20.8899994      -5.72582676E-11
   20.9624996      -3.00595576E-10
   21.0349998      -5.16491794E-10
   21.1075001      -6.46374898E-10
   21.1800003      -6.42092990E-10
   21.2525005      -4.79671802E-10
   21.3250008      -1.69622386E-10
   21.3974991       2.39407411E-10
   21.4699993       6.65789535E-10
   21.5424995       1.00920294E-09
   21.6149998       1.17208099E-09
   21.6875000       1.08403642E-09
   21.7600002       7.23577920E-10
   21.8325005       1.31190919E-10
   21.9050007      -5.90839044E-10
   21.9775009      -1.29375632E-09
   22.0499992      -1.81110626E-09
   22.1224995      -1.99561678E-09
   22.1949997      -1.75620551E-09
   22.2674999      -1.08622566E-09
   22.3400002      -7.53209023E-11
   22.4125004       1.09948872E-09
   22.4850006       2.20330909E-09
   22.5575008       2.98849856E-09
   22.6299992       3.24660121E-09
   22.7024994       2.85631341E-09
   22.7749996       1.81711790E-09
   22.8474998       2.60890004E-10
   22.9200001      -1.56194713E-09
   22.9925003      -3.32026118E-09
   23.0650005      -4.65810723E-09
   23.1375008      -5.25949773E-09
   23.2099991      -4.91124030E-09
   23.2824993      -3.55310692E-09
   23.3549995      -1.30611877E-09
   23.4274998       1.52754365E-09
   23.5000000       4.49588455E-09
   23.5725002       7.05825354E-09
   23.6450005       8.67016414E-09
   23.7175007       8.88095553E-09
   23.7900009       7.42964934E-09
   23.8624992       4.32210889E-09
   23.9349995      -1.27097777E-10
   24.0074997      -5.30152500E-09
   24.0799999      -1.03455475E-08
   24.1525002      -1.42815288E-08
   24.2250004      -1.61701443E-08
   24.2975006      -1.52927111E-08
   24.3700008      -1.13262706E-08
   24.4424992      -4.47754145E-09
   24.5149994       4.45770931E-09
   24.5874996       1.41364778E-08
   24.6599998       2.28244197E-08
   24.7325001       2.86589756E-08
   24.8050003       2.99896676E-08
   24.8775005       2.57429402E-08
   24.9500008       1.57425468E-08
   25.0224991       9.11149045E-10
   25.0949993      -1.67113630E-08
   25.1674995      -3.41716628E-08
   25.2399998      -4.80286495E-08
   25.3125000      -5.49543202E-08
   25.3850002      -5.24179349E-08
   25.4575005      -3.93276913E-08
   25.5300007      -1.64903931E-08
   25.6025009       1.32367539E-08
   25.6749992       4.51853452E-08
   25.7474995       7.35206527E-08
   25.8199997       9.22233525E-08
   25.8924999       9.62568052E-08
   25.9650002       8.27058670E-08
   26.0375004       5.16486018E-08
   26.1100006       6.54620225E-09
   26.1825008      -4.59892213E-08
   26.2549992      -9.70773257E-08
   26.3274994      -1.37000811E-07
   26.3999996      -1.56963424E-07
   26.4724998      -1.50867507E-07
   26.5450001      -1.16771822E-07
   26.6175003      -5.77209072E-08
   26.6900005       1.82752995E-08
   26.7625008       9.91968747E-08
   26.8349991       1.70827619E-07
   26.9074993       2.19183931E-07
   26.9799995       2.33173097E-07
   27.0524998       2.07003694E-07
   27.1250000       1.41856646E-07
   27.1975002       4.64030627E-08
   27.2700005      -6.40733333E-08
   27.3425007      -1.69947242E-07
   27.4150009      -2.50637100E-07
   27.4874992      -2.88569453E-07
   27.5599995      -2.73007345E-07
   27.6324997      -2.02971748E-07
   27.7049999      -8.85705020E-08
   27.7775002       4.97201320E-08
   27.8500004       1.83940614E-07
   27.9225006       2.83418103E-07
   27.9950008       3.20748569E-07
   28.0674992       2.77997003E-07
   28.1399994       1.51944676E-07
   28.2124996      -4.27745555E-08
   28.2849998      -2.73571885E-07
   28.3575001      -4.93314928E-07
   28.4300003      -6.47132936E-07
   28.5025005      -6.81841186E-07
   28.5750008      -5.56615873E-07
   28.6474991      -2.53148698E-07
   28.7199993       2.16607972E-07
   28.7924995       8.06781316E-07
   28.8649998       1.43914269E-06
   28.9375000       2.01026000E-06
   29.0100002       2.40369059E-06
   29.0825005       2.50577432E-06
   29.1550007       2.22285848E-06
   29.2275009       1.49734296E-06
   29.2999992       3.19897936E-07
   29.3724995      -1.26439181E-06
   29.4449997      -3.15739203E-06
   29.5174999      -5.21709171E-06
   29.5900002      -7.27361930E-06
   29.6625004      -9.14996690E-06
   29.7350006      -1.06844254E-05
   29.8075008      -1.17513609E-05
   29.8799992      -1.22771607E-05
   29.9524994      -1.22488946E-05
   30.0249996      -1.17144018E-05
   30.0974998      -1.07737969E-05
   30.1700001      -9.56375061E-06
   30.2425003      -8.23696973E-06
   30.3150005      -6.94003666E-06
   30.3875008      -5.79302605E-06
   30.4599991      -4.87406351E-06
   30.5324993      -4.21124241E-06
   30.6049995      -3.78319646E-06
   30.6774998      -3.52817892E-06
   30.7500000      -3.36006678E-06
   30.8225002      -3.18840989E-06
   30.8950005      -2.93882863E-06
   30.9675007      -2.56985322E-06
   31.0400009      -2.08284928E-06
   31.1124992      -1.52288851E-06
   31.1849995      -9.70135147E-07
   31.2574997      -5.23192000E-07
   31.3299999      -2.77518666E-07
   31.4025002      -3.03127564E-07
   31.4750004      -6.26070062E-07
   31.5475006      -1.21762764E-06
   31.6200008      -1.99375950E-06
   31.6924992      -2.82548103E-06
   31.7649994      -3.55882230E-06
   31.8374996      -4.04121010E-06
   31.9099998      -4.14986334E-06
   31.9825001      -3.81724658E-06
   32.0550003      -3.04890909E-06
   32.1274986      -1.93006440E-06
   32.2000008      -6.18930983E-07
   32.2724991       6.73060015E-07
   32.3450012       1.71184274E-06
   32.4174995       2.27768783E-06
   32.4900017       2.20269294E-06
   32.5625000       1.40236489E-06
   32.6349983      -1.04525625E-07
   32.7075005      -2.19186245E-06
   32.7799988      -4.63924061E-06
   32.8525009      -7.16047771E-06
   32.9249992      -9.44313160E-06
   32.9975014      -1.11926865E-05
   33.0699997      -1.21744306E-05
   33.1425018      -1.22467281E-05
   33.2150002      -1.13810365E-05
   33.2874985      -9.66622792E-06
   33.3600006      -7.29712792E-06
   33.4324989      -4.54914334E-06
   33.5050011      -1.74254899E-06
   33.5774994       7.98870474E-07
   33.6500015       2.78941616E-06
   33.7224998       4.01775014E-06
   33.7949982       4.37281915E-06
   33.8675003       3.85571184E-06
   33.9399986       2.57576630E-06
   34.0125008       7.31740499E-07
   34.0849991      -1.41867463E-06
   34.1575012      -3.59585442E-06
   34.2299995      -5.53572863E-06
   34.3025017      -7.02206989E-06
   34.3750000      -7.90922968E-06
   34.4474983      -8.13298720E-06
   34.5200005      -7.70934821E-06
   34.5924988      -6.72301712E-06
   34.6650009      -5.30863781E-06
   34.7374992      -3.62854666E-06
   34.8100014      -1.85071826E-06
   34.8824997      -1.29972094E-07
   34.9550018       1.40560485E-06
   35.0275002       2.66230859E-06
   35.0999985       3.58299508E-06
   35.1725006       4.14501665E-06
   35.2449989       4.35543006E-06
   35.3175011       4.24482005E-06
   35.3899994       3.86067177E-06
   35.4625015       3.26087843E-06
   35.5349998       2.50780045E-06
   35.6074982       1.66337679E-06
   35.6800003       7.85818770E-07
   35.7524986      -7.17359256E-08
   35.8250008      -8.60728619E-07
   35.8974991      -1.53563622E-06
   35.9700012      -2.05267725E-06
   36.0424995      -2.37009044E-06
   36.1150017      -2.45072488E-06
   36.1875000      -2.26669226E-06
   36.2599983      -1.80488212E-06
   36.3325005      -1.07168239E-06
   36.4049988      -9.54929007E-08
   36.4775009       1.07358289E-06
   36.5499992       2.36656479E-06
   36.6225014       3.70004818E-06
   36.6949997       4.98138843E-06
   36.7675018       6.11417727E-06
   36.8400002       7.00417149E-06
   36.9124985       7.56613827E-06
   36.9850006       7.73192005E-06
   37.0574989       7.45945999E-06
   37.1300011       6.74181592E-06
   37.2024994       5.61466913E-06
   37.2750015       4.16058447E-06
   37.3474998       2.50843118E-06
   37.4199982       8.26725056E-07
   37.4925003      -6.89730655E-07
   37.5649986      -1.83967302E-06
   37.6375008      -2.44031276E-06
   37.7099991      -2.35467701E-06
   37.7825012      -1.51742040E-06
   37.8549995       4.55789007E-08
   37.9275017       2.20836159E-06
   38.0000000       4.75007391E-06
   38.0724983       7.37535538E-06
   38.1450005       9.74846625E-06
   38.2174988       1.15371149E-05
   38.2900009       1.24600074E-05
   38.3624992       1.23310419E-05
   38.4350014       1.10931551E-05
   38.5074997       8.83593839E-06
   38.5800018       5.79328844E-06
   38.6525002       2.32020466E-06
   38.7249985      -1.14897171E-06
   38.7975006      -4.15566274E-06
   38.8699989      -6.27812415E-06
   38.9425011      -7.19009540E-06
   39.0149994      -6.70885902E-06
   39.0875015      -4.82583528E-06
   39.1599998      -1.71494446E-06
   39.2324982       2.28336899E-06
   39.3050003       6.70147347E-06
   39.3774986       1.10029250E-05
   39.4500008       1.46523644E-05
   39.5224991       1.71870161E-05
   39.5950012       1.82789918E-05
   39.6674995       1.77788606E-05
   39.7400017       1.57341256E-05
   39.8125000       1.23806667E-05
   39.8849983       8.10969232E-06
   39.9575005       3.41597183E-06
   40.0299988      -1.16509284E-06
   40.1025009      -5.12362340E-06
   40.1749992      -8.03694911E-06
   40.2475014      -9.61952992E-06
   40.3199997      -9.75446346E-06
   40.3925018      -8.50150627E-06
   40.4650002      -6.07969378E-06
   40.5374985      -2.82731571E-06
   40.6100006       8.52900484E-07
   40.6824989       4.55202462E-06
   40.7550011       7.90489958E-06
   40.8274994       1.06235439E-05
   40.9000015       1.25115794E-05
   40.9724998       1.34631227E-05
   41.0449982       1.34530183E-05
   41.1175003       1.25250608E-05
   41.1899986       1.07816904E-05
   41.2625008       8.37482003E-06
   41.3349991       5.49519291E-06
   41.4075012       2.35826906E-06
   41.4799995      -8.12769770E-07
   41.5525017      -3.80358097E-06
   41.6250000      -6.42074292E-06
   41.6974983      -8.49729804E-06
   41.7700005      -9.89332148E-06
   41.8424988      -1.04961591E-05
   41.9150009      -1.02253907E-05
   41.9874992      -9.04494846E-06
   42.0600014      -6.98023860E-06