  -20.0000000       0.00000000    
  -19.9274998       0.00000000    
  -19.8549995       0.00000000    
  -19.7824993       0.00000000    
  -19.7099991       0.00000000    
  -19.6375008       0.00000000    
  -19.5650005       0.00000000    
  -19.4925003       0.00000000    
  -19.4200001       0.00000000    
  -19.3474998       0.00000000    
  -19.2749996       0.00000000    
  -19.2024994       0.00000000    
  -19.1299992       0.00000000    
  -19.0575008       0.00000000    
  -18.9850006       0.00000000    
  -18.9125004       0.00000000    
  -18.8400002       0.00000000    
  -18.7674999       0.00000000    
  -18.6949997       0.00000000    
  -18.6224995       0.00000000    
  -18.5499992       0.00000000    
  -18.4775009       0.00000000    
  -18.4050007       0.00000000    
  -18.3325005       0.00000000    
  -18.2600002       0.00000000    
  -18.1875000       0.00000000    
  -18.1149998       0.00000000    
  -18.0424995       0.00000000    
  -17.9699993       0.00000000    
  -17.8974991       0.00000000    
  -17.8250008       0.00000000    
  -17.7525005       0.00000000    
  -17.6800003       0.00000000    
  -17.6075001       0.00000000    
  -17.5349998       0.00000000    
  -17.4624996       0.00000000    
  -17.3899994       0.00000000    
  -17.3174992       0.00000000    
  -17.2450008       0.00000000    
  -17.1725006       0.00000000    
  -17.1000004       0.00000000    
  -17.0275002       0.00000000    
  -16.9549999       0.00000000    
  -16.8824997       0.00000000    
  -16.8099995       0.00000000    
  -16.7374992       0.00000000    
  -16.6650009       0.00000000    
  -16.5925007       0.00000000    
  -16.5200005       0.00000000    
  -16.4475002       0.00000000    
  -16.3750000       0.00000000    
  -16.3024998       0.00000000    
  -16.2299995       0.00000000    
  -16.1574993       0.00000000    
  -16.0849991       0.00000000    
  -16.0125008       0.00000000    
  -15.9399996       0.00000000    
  -15.8675003       0.00000000    
  -15.7950001       0.00000000    
  -15.7224998       0.00000000    
  -15.6499996       0.00000000    
  -15.5775003       0.00000000    
  -15.5050001       0.00000000    
  -15.4324999       0.00000000    
  -15.3599997       0.00000000    
  -15.2875004       0.00000000    
  -15.2150002       0.00000000    
  -15.1424999       0.00000000    
  -15.0699997       0.00000000    
  -14.9975004       0.00000000    
  -14.9250002       0.00000000    
  -14.8525000       0.00000000    
  -14.7799997       0.00000000    
  -14.7075005       0.00000000    
  -14.6350002       0.00000000    
  -14.5625000       0.00000000    
  -14.4899998       0.00000000    
  -14.4174995       0.00000000    
  -14.3450003       0.00000000    
  -14.2725000       0.00000000    
  -14.1999998       0.00000000    
  -14.1274996       0.00000000    
  -14.0550003       0.00000000    
  -13.9825001       0.00000000    
  -13.9099998       0.00000000    
  -13.8374996       0.00000000    
  -13.7650003       0.00000000    
  -13.6925001       0.00000000    
  -13.6199999       0.00000000    
  -13.5474997       0.00000000    
  -13.4750004       0.00000000    
  -13.4025002       0.00000000    
  -13.3299999       0.00000000    
  -13.2574997       0.00000000    
  -13.1850004       0.00000000    
  -13.1125002       0.00000000    
  -13.0400000       0.00000000    
  -12.9674997       0.00000000    
  -12.8950005       0.00000000    
  -12.8225002       0.00000000    
  -12.7500000       0.00000000    
  -12.6774998       0.00000000    
  -12.6049995       0.00000000    
  -12.5325003       0.00000000    
  -12.4600000       0.00000000    
  -12.3874998       0.00000000    
  -12.3149996       0.00000000    
  -12.2425003       0.00000000    
  -12.1700001       0.00000000    
  -12.0974998       0.00000000    
  -12.0249996       0.00000000    
  -11.9525003       0.00000000    
  -11.8800001       0.00000000    
  -11.8074999       0.00000000    
  -11.7349997       0.00000000    
  -11.6625004       0.00000000    
  -11.5900002       0.00000000    
  -11.5174999       0.00000000    
  -11.4449997       0.00000000    
  -11.3725004       0.00000000    
  -11.3000002       0.00000000    
  -11.2275000       0.00000000    
  -11.1549997       0.00000000    
  -11.0825005       0.00000000    
  -11.0100002       0.00000000    
  -10.9375000       0.00000000    
  -10.8649998       0.00000000    
  -10.7924995       0.00000000    
  -10.7200003       0.00000000    
  -10.6475000       0.00000000    
  -10.5749998       0.00000000    
  -10.5024996       0.00000000    
  -10.4300003       0.00000000    
  -10.3575001       0.00000000    
  -10.2849998       0.00000000    
  -10.2124996       0.00000000    
  -10.1400003       0.00000000    
  -10.0675001       0.00000000    
  -9.99499989       0.00000000    
  -9.92249966       0.00000000    
  -9.85000038       0.00000000    
  -9.77750015       0.00000000    
  -9.70499992       0.00000000    
  -9.63249969       0.00000000    
  -9.56000042       0.00000000    
  -9.48750019       0.00000000    
  -9.41499996       0.00000000    
  -9.34249973       0.00000000    
  -9.27000046       0.00000000    
  -9.19750023       0.00000000    
  -9.12500000       0.00000000    
  -9.05249977       0.00000000    
  -8.97999954       0.00000000    
  -8.90750027       0.00000000    
  -8.83500004       0.00000000    
  -8.76249981       0.00000000    
  -8.68999958       0.00000000    
  -8.61750031       0.00000000    
  -8.54500008       0.00000000    
  -8.47249985       0.00000000    
  -8.39999962       0.00000000    
  -8.32750034       0.00000000    
  -8.25500011       0.00000000    
  -8.18249989       0.00000000    
  -8.10999966       0.00000000    
  -8.03750038       0.00000000    
  -7.96500015       0.00000000    
  -7.89249992       0.00000000    
  -7.82000017       0.00000000    
  -7.74749994       0.00000000    
  -7.67500019       0.00000000    
  -7.60249996       0.00000000    
  -7.53000021       0.00000000    
  -7.45749998       0.00000000    
  -7.38500023       0.00000000    
  -7.31250000       0.00000000    
  -7.23999977       0.00000000    
  -7.16750002       0.00000000    
  -7.09499979       0.00000000    
  -7.02250004       0.00000000    
  -6.94999981       0.00000000    
  -6.87750006       0.00000000    
  -6.80499983       0.00000000    
  -6.73250008       0.00000000    
  -6.65999985       0.00000000    
  -6.58750010       0.00000000    
  -6.51499987       0.00000000    
  -6.44250011       0.00000000    
  -6.36999989       0.00000000    
  -6.29750013       0.00000000    
  -6.22499990       0.00000000    
  -6.15250015       0.00000000    
  -6.07999992       0.00000000    
  -6.00750017       0.00000000    
  -5.93499994       0.00000000    
  -5.86250019       0.00000000    
  -5.78999996       0.00000000    
  -5.71750021       0.00000000    
  -5.64499998       0.00000000    
  -5.57250023       0.00000000    
  -5.50000000       0.00000000    
  -5.42749977       0.00000000    
  -5.35500002       0.00000000    
  -5.28249979       0.00000000    
  -5.21000004       0.00000000    
  -5.13749981       0.00000000    
  -5.06500006       0.00000000    
  -4.99249983       0.00000000    
  -4.92000008       0.00000000    
  -4.84749985       0.00000000    
  -4.77500010       0.00000000    
  -4.70249987       0.00000000    
  -4.63000011       0.00000000    
  -4.55749989       0.00000000    
  -4.48500013       0.00000000    
  -4.41249990       0.00000000    
  -4.34000015       0.00000000    
  -4.26749992       0.00000000    
  -4.19500017       0.00000000    
  -4.12249994       0.00000000    
  -4.05000019       0.00000000    
  -3.97749996       0.00000000    
  -3.90499997       0.00000000    
  -3.83249998       0.00000000    
  -3.75999999       0.00000000    
  -3.68750000       0.00000000    
  -3.61500001       0.00000000    
  -3.54250002       0.00000000    
  -3.47000003       0.00000000    
  -3.39750004       0.00000000    
  -3.32500005       0.00000000    
  -3.25250006       0.00000000    
  -3.18000007       0.00000000    
  -3.10750008       0.00000000    
  -3.03500009       0.00000000    
  -2.96250010       0.00000000    
  -2.89000010       0.00000000    
  -2.81750011       0.00000000    
  -2.74499989       0.00000000    
  -2.67249990       0.00000000    
  -2.59999990       0.00000000    
  -2.52749991       0.00000000    
  -2.45499992       0.00000000    
  -2.38249993       0.00000000    
  -2.30999994       0.00000000    
  -2.23749995       0.00000000    
  -2.16499996       0.00000000    
  -2.09249997       0.00000000    
  -2.01999998       0.00000000    
  -1.94749999       0.00000000    
  -1.87500000       0.00000000    
  -1.80250001       0.00000000    
  -1.73000002       0.00000000    
  -1.65750003       0.00000000    
  -1.58500004       0.00000000    
  -1.51250005       0.00000000    
  -1.44000006       0.00000000    
  -1.36749995       0.00000000    
  -1.29499996       0.00000000    
  -1.22249997       0.00000000    
  -1.14999998       0.00000000    
  -1.07749999       0.00000000    
  -1.00500000       0.00000000    
 -0.932500005       0.00000000    
 -0.860000014       0.00000000    
 -0.787500024       0.00000000    
 -0.714999974       0.00000000    
 -0.642499983       0.00000000    
 -0.569999993       0.00000000    
 -0.497500002       0.00000000    
 -0.425000012       0.00000000    
 -0.352499992       0.00000000    
 -0.280000001       0.00000000    
 -0.207499996       0.00000000    
 -0.135000005       0.00000000    
  -6.25000000E-02   0.00000000    
   9.99999978E-03   0.00000000    
   8.25000033E-02   0.00000000    
  0.155000001       0.00000000    
  0.227500007       0.00000000    
  0.300000012       0.00000000    
  0.372500002       0.00000000    
  0.444999993       0.00000000    
  0.517499983       0.00000000    
  0.589999974       0.00000000    
  0.662500024       0.00000000    
  0.735000014       0.00000000    
  0.807500005       0.00000000    
  0.879999995       0.00000000    
  0.952499986       0.00000000    
   1.02499998       0.00000000    
   1.09749997       0.00000000    
   1.16999996       0.00000000    
   1.24249995       0.00000000    
   1.31500006       0.00000000    
   1.38750005       0.00000000    
   1.46000004       0.00000000    
   1.53250003       0.00000000    
   1.60500002       0.00000000    
   1.67750001       0.00000000    
   1.75000000       0.00000000    
   1.82249999       0.00000000    
   1.89499998       0.00000000    
   1.96749997       0.00000000    
   2.03999996      -0.00000000    
   2.11249995      -0.00000000    
   2.18499994      -0.00000000    
   2.25749993      -0.00000000    
   2.32999992       0.00000000    
   2.40249991       0.00000000    
   2.47499990       0.00000000    
   2.54749990       0.00000000    
   2.61999989      -0.00000000    
   2.69250011      -1.90571841E-38
   2.76500010      -2.03395698E-38
   2.83750010       3.73143276E-38
   2.91000009       1.83331710E-37
   2.98250008       3.47934808E-37
   3.05500007      -6.83015741E-38
   3.12750006      -1.84348548E-36
   3.20000005      -4.84533512E-36
   3.27250004      -5.17747793E-36
   3.34500003       7.38201484E-36
   3.41750002       4.31531782E-35
   3.49000001       8.67676174E-35
   3.56250000       6.16155855E-35
   3.63499999      -1.81605004E-34
   3.70749998      -7.44030481E-34
   3.77999997      -1.33132211E-33
   3.85249996      -7.97549591E-34
   3.92499995       2.78403972E-33
   3.99749994       1.03524899E-32
   4.07000017       1.76419030E-32
   4.14249992       1.05453179E-32
   4.21500015      -3.25528122E-32
   4.28749990      -1.20028705E-31
   4.36000013      -2.03382011E-31
   4.43249989      -1.35206971E-31
   4.50500011       2.99265980E-31
   4.57749987       1.17926590E-30
   4.65000010       2.05418879E-30
   4.72249985       1.59276231E-30
   4.79500008      -2.11907984E-30
   4.86749983      -9.88153503E-30
   4.94000006      -1.82174210E-29
   5.01249981      -1.66202322E-29
   5.08500004       1.03019151E-29
   5.15749979       7.05153851E-29
   5.23000002       1.41781293E-28
   5.30249977       1.51249129E-28
   5.37500000      -1.29090465E-29
   5.44750023      -4.23422583E-28
   5.51999998      -9.65816793E-28
   5.59250021      -1.19615898E-27
   5.66499996      -3.81463816E-28
   5.73750019       2.06736889E-27
   5.80999994       5.72421316E-27
   5.88250017       8.22568916E-27
   5.95499992       5.25215694E-27
   6.02750015      -7.39155735E-27
   6.09999990      -2.91433907E-26
   6.17250013      -4.91899425E-26
   6.24499989      -4.47689441E-26
   6.31750011       1.03834094E-26
   6.38999987       1.23885453E-25
   6.46250010       2.54891929E-25
   6.53499985       2.97113786E-25
   6.60750008       1.05779678E-25
   6.67999983      -4.08153847E-25
   6.75250006      -1.13173190E-24
   6.82499981      -1.63217570E-24
   6.89750004      -1.20707916E-24
   6.96999979       7.66085012E-25
   7.04250002       4.18644144E-24
   7.11499977       7.56732257E-24
   7.18750000       7.92316037E-24
   7.26000023       1.85213358E-24
   7.33249998      -1.19510629E-23
   7.40500021      -2.95277768E-23
   7.47749996      -3.99044532E-23
   7.55000019      -2.75665676E-23
   7.62249994       1.89894076E-23
   7.69500017       9.41396186E-23
   7.76749992       1.64076644E-22
   7.84000015       1.68602408E-22
   7.91249990       4.55602829E-23
   7.98500013      -2.22023223E-22
   8.05749989      -5.53935300E-22
   8.13000011      -7.52381857E-22
   8.20250034      -5.54929997E-22
   8.27499962       2.20283311E-22
   8.34749985       1.47336922E-21
   8.42000008       2.67228573E-21
   8.49250031       2.90402393E-21
   8.56499958       1.24327397E-21
   8.63749981      -2.59140964E-21
   8.71000004      -7.55397734E-21
   8.78250027      -1.10270955E-20
   8.85499954      -9.50554359E-21
   8.92749977      -3.83994214E-22
   9.00000000       1.56196337E-20
   9.07250023       3.26307404E-20
   9.14500046       4.00189269E-20
   9.21749973       2.62542474E-20
   9.28999996      -1.40782327E-20
   9.36250019      -7.26895755E-20
   9.43500042      -1.24025574E-19
   9.50749969      -1.30590894E-19
   9.57999992      -5.92774494E-20
   9.65250015       9.49440815E-20
   9.72500038       2.88483504E-19
   9.79749966       4.26523275E-19
   9.86999989       3.90594401E-19
   9.94250011       9.69693751E-20
   10.0150003      -4.32095319E-19
   10.0874996      -1.02022792E-18
   10.1599998      -1.35393491E-18
   10.2325001      -1.09072149E-18
   10.3050003      -4.41410329E-20
   10.3774996       1.62151285E-18
   10.4499998       3.29534529E-18
   10.5225000       4.03034861E-18
   10.5950003       2.90395320E-18
   10.6674995      -4.48506789E-19
   10.7399998      -5.34123219E-18
   10.8125000      -9.88252861E-18
   10.8850002      -1.14089564E-17
   10.9575005      -7.55676804E-18
   11.0299997       2.30836124E-18
   11.1025000       1.59079752E-17
   11.1750002       2.78658520E-17
   11.2475004       3.10841074E-17
   11.3199997       1.96695907E-17
   11.3924999      -7.42205754E-18
   11.4650002      -4.36044819E-17
   11.5375004      -7.45702528E-17
   11.6099997      -8.21330791E-17
   11.6824999      -5.17619683E-17
   11.7550001       1.84255706E-17
   11.8275003       1.11145268E-16
   11.8999996       1.90259191E-16
   11.9724998       2.10670289E-16
   12.0450001       1.36883833E-16
   12.1175003      -3.54009347E-17
   12.1899996      -2.64138860E-16
   12.2624998      -4.62351981E-16
   12.3350000      -5.22104597E-16
   12.4075003      -3.58290040E-16
   12.4799995       4.13304697E-17
   12.5524998       5.81701306E-16
   12.6250000       1.06424332E-15
   12.6975002       1.24138788E-15
   12.7700005       9.14630623E-16
   12.8424997       4.54198422E-17
   12.9150000      -1.16881843E-15
   12.9875002      -2.30140398E-15
   13.0600004      -2.81134852E-15
   13.1324997      -2.25014345E-15
   13.2049999      -4.96079510E-16
   13.2775002       2.08174483E-15
   13.3500004       4.62669216E-15
   13.4224997       6.01666391E-15
   13.4949999       5.27383592E-15
   13.5675001       2.03745093E-15
   13.6400003      -3.09014157E-15
   13.7124996      -8.51358575E-15
   13.7849998      -1.20355919E-14
   13.8575001      -1.16191905E-14
   13.9300003      -6.29580023E-15
   14.0024996       3.13092748E-15
   14.0749998       1.39407071E-14
   14.1475000       2.21189983E-14
   14.2200003       2.36781521E-14
   14.2924995       1.62950182E-14
   14.3649998       6.57281738E-16
   14.4375000      -1.91069423E-14
   14.5100002      -3.62969339E-14
   14.5825005      -4.37268630E-14
   14.6549997      -3.64357660E-14
   14.7275000      -1.40528721E-14
   14.8000002       1.81852925E-14
   14.8725004       5.03989415E-14
   14.9449997       7.09561939E-14
   15.0174999       7.04713591E-14
   15.0900002       4.55493729E-14
   15.1625004       8.44901971E-16
   15.2349997      -5.15171436E-14
   15.3074999      -9.52244807E-14
   15.3800001      -1.14843329E-13
   15.4525003      -1.01035940E-13
   15.5249996      -5.41441044E-14
   15.5974998       1.51653897E-14
   15.6700001       8.85376435E-14
   15.7425003       1.45090347E-13
   15.8149996       1.67486088E-13
   15.8874998       1.46999803E-13
   15.9600000       8.60186352E-14
   16.0324993      -2.70113979E-15
   16.1049995      -9.95930091E-14
   16.1774998      -1.83311550E-13
   16.2500000      -2.35514462E-13
   16.3225002      -2.43990158E-13
   16.3950005      -2.03622573E-13
   16.4675007      -1.15777722E-13
   16.5400009       1.25405235E-14
   16.6124992       1.68434290E-13
   16.6849995       3.31357446E-13
   16.7574997       4.70995367E-13
   16.8299999       5.47302655E-13
   16.9025002       5.15602426E-13
   16.9750004       3.38409774E-13
   17.0475006       2.82152837E-15
   17.1200008      -4.61244595E-13
   17.1924992      -9.69521663E-13
   17.2649994      -1.38671680E-12
   17.3374996      -1.55013882E-12
   17.4099998      -1.31321017E-12
   17.4825001      -6.00724928E-13
   17.5550003       5.39479323E-13
   17.6275005       1.90767345E-12
   17.7000008       3.16379431E-12
   17.7724991       3.88876041E-12
   17.8449993       3.69107739E-12
   17.9174995       2.33791502E-12
   17.9899998      -1.24233509E-13
   18.0625000      -3.30067440E-12
   18.1350002      -6.46741211E-12
   18.2075005      -8.69542893E-12
   18.2800007      -9.06945439E-12
   18.3525009      -6.95888919E-12
   18.4249992      -2.27359776E-12
   18.4974995       4.37219358E-12
   18.5699997       1.16537483E-11
   18.6424999       1.77225023E-11
   18.7150002       2.05766706E-11
   18.7875004       1.85593711E-11
   18.8600006       1.08870248E-11
   18.9325008      -1.91525159E-12
   19.0049992      -1.78005648E-11
   19.0774994      -3.33203846E-11
   19.1499996      -4.41429462E-11
   19.2224998      -4.59586362E-11
   19.2950001      -3.56581535E-11
   19.3675003      -1.25537098E-11
   19.4400005       2.06849451E-11
   19.5125008       5.77478551E-11
   19.5849991       8.93631558E-11
   19.6574993       1.05058635E-10
   19.7299995       9.58325919E-11
   19.8024998       5.72130746E-11
   19.8750000      -8.10937949E-12
   19.9475002      -8.90127416E-11
   20.0200005      -1.66828648E-10
   20.0925007      -2.18725843E-10
   20.1650009      -2.23250848E-10
   20.2374992      -1.66923655E-10
   20.3099995      -5.01724322E-11
   20.3824997       1.09336096E-10
   20.4549999       2.77593781E-10
   20.5275002       4.10100676E-10
   20.6000004       4.62071575E-10
   20.6725006       4.00978029E-10
   20.7450008       2.18294952E-10
   20.8174992      -6.30749897E-11
   20.8899994      -3.88651999E-10
   20.9624996      -6.80921541E-10
   21.0349998      -8.55782167E-10
   21.1075001      -8.43783043E-10
   21.1800003      -6.11229067E-10
   21.2525005      -1.75509038E-10
   21.3250008       3.90306482E-10
   21.3974991       9.66477676E-10
   21.4699993       1.40903778E-09
   21.5424995       1.58208102E-09
   21.6149998       1.39335232E-09
   21.6875000       8.24809554E-10
   21.7600002      -5.02209038E-11
   21.8325005      -1.06974851E-09
   21.9050007      -2.00832617E-09
   21.9775009      -2.62229127E-09
   22.0499992      -2.70711809E-09
   22.1224995      -2.15447549E-09
   22.1949997      -9.94468952E-10
   22.2674999       5.90114846E-10
   22.3400002       2.28563657E-09
   22.4125004       3.70535091E-09
   22.4850006       4.47343895E-09
   22.5575008       4.31745661E-09
   22.6299992       3.14690363E-09
   22.7024994       1.09672038E-09
   22.7749996      -1.47857648E-09
   22.8474998      -4.06324352E-09
   22.9200001      -6.08158679E-09
   22.9925003      -7.02173697E-09
   23.0650005      -6.55521770E-09
   23.1375008      -4.62540406E-09
   23.2099991      -1.48376478E-09
   23.2824993       2.33685427E-09
   23.3549995       6.11001783E-09
   23.4274998       9.05017927E-09
   23.5000000       1.04693809E-08
   23.5725002       9.92580507E-09
   23.6450005       7.33344008E-09
   23.7175007       3.00780756E-09
   23.7900009      -2.36592412E-09
   23.8624992      -7.84082133E-09
   23.9349995      -1.23743469E-08
   24.0074997      -1.50219357E-08
   24.0799999      -1.51205057E-08
   24.1525002      -1.24261845E-08
   24.2250004      -7.18026127E-09
   24.2975006      -9.20054380E-11
   24.3700008       7.75737252E-09
   24.4424992       1.50728638E-08
   24.5149994       2.05416004E-08
   24.5874996       2.30396839E-08
   24.6599998       2.18234906E-08
   24.7325001       1.66806622E-08
   24.8050003       8.01818079E-09
   24.8775005      -3.13150283E-09
   24.9500008      -1.51984914E-08
   25.0224991      -2.62586077E-08
   25.0949993      -3.42978410E-08
   25.1674995      -3.75285829E-08
   25.2399998      -3.47152742E-08
   25.3125000      -2.54601691E-08
   25.3850002      -1.03994520E-08
   25.4575005       8.73458994E-09
   25.5300007       2.92198052E-08
   25.6025009       4.76379469E-08
   25.6749992       6.03521926E-08
   25.7474995       6.41310649E-08
   25.8199997       5.68387044E-08
   25.8924999       3.80666840E-08
   25.9650002       9.55270352E-09
   26.0375004      -2.47664005E-08
   26.1100006      -5.91703504E-08
   26.1825008      -8.70473684E-08
   26.2549992      -1.02145414E-07
   26.3274994      -9.99472434E-08
   26.3999996      -7.88604524E-08
   26.4724998      -4.09153706E-08
   26.5450001       8.24954061E-09
   26.6175003       6.01840426E-08
   26.6900005       1.05094315E-07
   26.7625008       1.33715758E-07
   26.8349991       1.39225577E-07
   26.9074993       1.18811023E-07
   26.9799995       7.45672750E-08
   27.0524998       1.35126097E-08
   27.1250000      -5.33441735E-08
   27.1975002      -1.12792833E-07
   27.2700005      -1.51824338E-07
   27.3425007      -1.60273416E-07
   27.4150009      -1.33234749E-07
   27.4874992      -7.27552560E-08
   27.5599995       1.16370922E-08
   27.6324997       1.03849928E-07
   27.7049999       1.83618809E-07
   27.7775002       2.30101946E-07
   27.8500004       2.26111325E-07
   27.9225006       1.62208366E-07
   27.9950008       3.98325000E-08
   28.0674992      -1.27256229E-07
   28.1399994      -3.13670256E-07
   28.2124996      -4.85305463E-07
   28.2849998      -6.04158458E-07
   28.3575001      -6.34398759E-07
   28.4300003      -5.48812068E-07
   28.5025005      -3.34636809E-07
   28.5750008       2.14292539E-09
   28.6474991       4.34811767E-07
   28.7199993       9.16741385E-07
   28.7924995       1.38515918E-06
   28.8649998       1.76761796E-06
   28.9375000       1.99051419E-06
   29.0100002       1.98863222E-06
   29.0825005       1.71444015E-06
   29.1550007       1.14576244E-06
   29.2275009       2.90577248E-07
   29.2999992      -8.11969244E-07
   29.3724995      -2.09470340E-06
   29.4449997      -3.46945353E-06
   29.5174999      -4.83706663E-06
   29.5900002      -6.09902509E-06
   29.6625004      -7.16899694E-06
   29.7350006      -7.98269502E-06
   29.8075008      -8.50470224E-06
   29.8799992      -8.73141744E-06
   29.9524994      -8.68987445E-06
   30.0249996      -8.43276575E-06
   30.0974998      -8.03047078E-06
   30.1700001      -7.56123609E-06
   30.2425003      -7.10081122E-06
   30.3150005      -6.71287808E-06
   30.3875008      -6.44150123E-06
   30.4599991      -6.30660770E-06
   30.5324993      -6.30315799E-06
   30.6049995      -6.40419830E-06
   30.6774998      -6.56741622E-06
   30.7500000      -6.74422063E-06
   30.8225002      -6.88982800E-06
   30.8950005      -6.97250198E-06
   30.9675007      -6.98008262E-06
   31.0400009      -6.92230060E-06
   31.1124992      -6.82815926E-06
   31.1849995      -6.73864724E-06
   31.2574997      -6.69616747E-06
   31.3299999      -6.73291697E-06
   31.4025002      -6.86092562E-06
   31.4750004      -7.06627452E-06
   31.5475006      -7.30923102E-06
   31.6200008      -7.53074755E-06
   31.6924992      -7.66429639E-06
   31.7649994      -7.65068035E-06
   31.8374996      -7.45268744E-06
   31.9099998      -7.06637957E-06
   31.9825001      -6.52649351E-06
   32.0550003      -5.90466334E-06
   32.1274986      -5.30063971E-06
   32.2000008      -4.82795849E-06
   32.2724991      -4.59641569E-06
   32.3450012      -4.69408087E-06
   32.4174995      -5.17150329E-06
   32.4900017      -6.03042645E-06
   32.5625000      -7.21882407E-06
   32.6349983      -8.63347213E-06
   32.7075005      -1.01304850E-05
   32.7799988      -1.15432003E-05
   32.8525009      -1.27054982E-05
   32.9249992      -1.34772490E-05
   32.9975014      -1.37675979E-05
   33.0699997      -1.35514911E-05
   33.1425018      -1.28757538E-05
   33.2150002      -1.18529370E-05
   33.2874985      -1.06437701E-05
   33.3600006      -9.43164378E-06
   33.4324989      -8.39427230E-06
   33.5050011      -7.67810070E-06
   33.5774994      -7.37991650E-06
   33.6500015      -7.53803397E-06
   33.7224998      -8.13295446E-06
   33.7949982      -9.09547362E-06
   33.8675003      -1.03192642E-05
   33.9399986      -1.16751153E-05
   34.0125008      -1.30249391E-05
   34.0849991      -1.42347899E-05
   34.1575012      -1.51868226E-05
   34.2299995      -1.57902341E-05
   34.3025017      -1.59907122E-05
   34.3750000      -1.57771901E-05
   34.4474983      -1.51842951E-05
   34.5200005      -1.42891013E-05
   34.5924988      -1.32016912E-05
   34.6650009      -1.20504528E-05
   34.7374992      -1.09643779E-05
   34.8100014      -1.00555326E-05
   34.8824997      -9.40490463E-06
   34.9550018      -9.05408888E-06
   35.0275002      -9.00384293E-06
   35.0999985      -9.21909577E-06
   35.1725006      -9.63867751E-06
   35.2449989      -1.01874684E-05
   35.3175011      -1.07885444E-05
   35.3899994      -1.13733813E-05
   35.4625015      -1.18888292E-05
   35.5349998      -1.23002410E-05
   35.6074982      -1.25907427E-05
   35.6800003      -1.27572057E-05
   35.7524986      -1.28040419E-05
   35.8250008      -1.27364810E-05
   35.8974991      -1.25552951E-05
   35.9700012      -1.22548736E-05
   36.0424995      -1.18257558E-05
   36.1150017      -1.12614380E-05
   36.1875000      -1.05676554E-05
   36.2599983      -9.77109539E-06
   36.3325005      -8.92404296E-06
   36.4049988      -8.10233269E-06
   36.4775009      -7.39581583E-06
   36.5499992      -6.89302260E-06
   36.6225014      -6.66375126E-06
   36.6949997      -6.74433568E-06
   36.7675018      -7.12974634E-06
   36.8400002      -7.77469813E-06
   36.9124985      -8.60317050E-06
   36.9850006      -9.52316077E-06
   37.0574989      -1.04420333E-05
   37.1300011      -1.12779289E-05
   37.2024994      -1.19645156E-05
   37.2750015      -1.24490007E-05
   37.3474998      -1.26861178E-05
   37.4199982      -1.26324385E-05
   37.4925003      -1.22453903E-05
   37.5649986      -1.14896302E-05
   37.6375008      -1.03504553E-05
   37.7099991      -8.85093959E-06
   37.7825012      -7.06731407E-06
   37.8549995      -5.13679879E-06
   37.9275017      -3.25355518E-06
   38.0000000      -1.65125596E-06
   38.0724983      -5.73953855E-07
   38.1450005      -2.39554453E-07
   38.2174988      -8.01654096E-07
   38.2900009      -2.31577133E-06
   38.3624992      -4.71542899E-06
   38.4350014      -7.80258779E-06
   38.5074997      -1.12558182E-05
   38.5800018      -1.46580851E-05
   38.6525002      -1.75437690E-05
   38.7249985      -1.94612458E-05
   38.7975006      -2.00433733E-05
   38.8699989      -1.90744540E-05
   38.9425011      -1.65402762E-05
   39.0149994      -1.26487184E-05
   39.0875015      -7.81304243E-06
   39.1599998      -2.59748003E-06
   39.2324982       2.36662368E-06
   39.3050003       6.47834258E-06
   39.3774986       9.25881977E-06
   39.4500008       1.04185065E-05
   39.5224991       9.88738975E-06
   39.5950012       7.80472146E-06
   39.6674995       4.47457433E-06
   39.7400017       3.01182126E-07
   39.8125000      -4.27868508E-06
   39.8849983      -8.85081772E-06
   39.9575005      -1.30568305E-05
   40.0299988      -1.66045993E-05
   40.1025009      -1.92626358E-05
   40.1749992      -2.08496585E-05
   40.2475014      -2.12304640E-05
   40.3199997      -2.03246091E-05
   40.3925018      -1.81271789E-05
   40.4650002      -1.47340388E-05
   40.5374985      -1.03600969E-05
   40.6100006      -5.33987213E-06
   40.6824989      -1.04885096E-07
   40.7550011       4.86017325E-06
   40.8274994       9.07374033E-06
   40.9000015       1.21140156E-05
   40.9724998       1.36648978E-05
   41.0449982       1.35449909E-05
   41.1175003       1.17194049E-05
   41.1899986       8.29845521E-06
   41.2625008       3.52829420E-06
   41.3349991      -2.22392646E-06
   41.4075012      -8.49161279E-06
   41.4799995      -1.47407955E-05
   41.5525017      -2.04156750E-05
   41.6250000      -2.49961158E-05
   41.6974983      -2.80593613E-05
   41.7700005      -2.93333815E-05
   41.8424988      -2.87287367E-05
   41.9150009      -2.63406091E-05
   41.9874992      -2.24213527E-05
   42.0600014      -1.73331191E-05