  -20.0000000       0.00000000    
  -19.9274998       0.00000000    
  -19.8549995       0.00000000    
  -19.7824993       0.00000000    
  -19.7099991       0.00000000    
  -19.6375008       0.00000000    
  -19.5650005       0.00000000    
  -19.4925003       0.00000000    
  -19.4200001       0.00000000    
  -19.3474998       0.00000000    
  -19.2749996       0.00000000    
  -19.2024994       0.00000000    
  -19.1299992       0.00000000    
  -19.0575008       0.00000000    
  -18.9850006       0.00000000    
  -18.9125004       0.00000000    
  -18.8400002       0.00000000    
  -18.7674999       0.00000000    
  -18.6949997       0.00000000    
  -18.6224995       0.00000000    
  -18.5499992       0.00000000    
  -18.4775009       0.00000000    
  -18.4050007       0.00000000    
  -18.3325005       0.00000000    
  -18.2600002       0.00000000    
  -18.1875000       0.00000000    
  -18.1149998       0.00000000    
  -18.0424995       0.00000000    
  -17.9699993       0.00000000    
  -17.8974991       0.00000000    
  -17.8250008       0.00000000    
  -17.7525005       0.00000000    
  -17.6800003       0.00000000    
  -17.6075001       0.00000000    
  -17.5349998       0.00000000    
  -17.4624996       0.00000000    
  -17.3899994       0.00000000    
  -17.3174992       0.00000000    
  -17.2450008       0.00000000    
  -17.1725006       0.00000000    
  -17.1000004       0.00000000    
  -17.0275002       0.00000000    
  -16.9549999       0.00000000    
  -16.8824997       0.00000000    
  -16.8099995       0.00000000    
  -16.7374992       0.00000000    
  -16.6650009       0.00000000    
  -16.5925007       0.00000000    
  -16.5200005       0.00000000    
  -16.4475002       0.00000000    
  -16.3750000       0.00000000    
  -16.3024998       0.00000000    
  -16.2299995       0.00000000    
  -16.1574993       0.00000000    
  -16.0849991       0.00000000    
  -16.0125008       0.00000000    
  -15.9399996       0.00000000    
  -15.8675003       0.00000000    
  -15.7950001       0.00000000    
  -15.7224998       0.00000000    
  -15.6499996       0.00000000    
  -15.5775003       0.00000000    
  -15.5050001       0.00000000    
  -15.4324999       0.00000000    
  -15.3599997       0.00000000    
  -15.2875004       0.00000000    
  -15.2150002       0.00000000    
  -15.1424999       0.00000000    
  -15.0699997       0.00000000    
  -14.9975004       0.00000000    
  -14.9250002       0.00000000    
  -14.8525000       0.00000000    
  -14.7799997       0.00000000    
  -14.7075005       0.00000000    
  -14.6350002       0.00000000    
  -14.5625000       0.00000000    
  -14.4899998       0.00000000    
  -14.4174995       0.00000000    
  -14.3450003       0.00000000    
  -14.2725000       0.00000000    
  -14.1999998       0.00000000    
  -14.1274996       0.00000000    
  -14.0550003       0.00000000    
  -13.9825001       0.00000000    
  -13.9099998       0.00000000    
  -13.8374996       0.00000000    
  -13.7650003       0.00000000    
  -13.6925001       0.00000000    
  -13.6199999       0.00000000    
  -13.5474997       0.00000000    
  -13.4750004       0.00000000    
  -13.4025002       0.00000000    
  -13.3299999       0.00000000    
  -13.2574997       0.00000000    
  -13.1850004       0.00000000    
  -13.1125002       0.00000000    
  -13.0400000       0.00000000    
  -12.9674997       0.00000000    
  -12.8950005       0.00000000    
  -12.8225002       0.00000000    
  -12.7500000       0.00000000    
  -12.6774998       0.00000000    
  -12.6049995       0.00000000    
  -12.5325003       0.00000000    
  -12.4600000       0.00000000    
  -12.3874998       0.00000000    
  -12.3149996       0.00000000    
  -12.2425003       0.00000000    
  -12.1700001       0.00000000    
  -12.0974998       0.00000000    
  -12.0249996       0.00000000    
  -11.9525003       0.00000000    
  -11.8800001       0.00000000    
  -11.8074999       0.00000000    
  -11.7349997       0.00000000    
  -11.6625004       0.00000000    
  -11.5900002       0.00000000    
  -11.5174999       0.00000000    
  -11.4449997       0.00000000    
  -11.3725004       0.00000000    
  -11.3000002       0.00000000    
  -11.2275000       0.00000000    
  -11.1549997       0.00000000    
  -11.0825005       0.00000000    
  -11.0100002       0.00000000    
  -10.9375000       0.00000000    
  -10.8649998       0.00000000    
  -10.7924995       0.00000000    
  -10.7200003       0.00000000    
  -10.6475000       0.00000000    
  -10.5749998       0.00000000    
  -10.5024996       0.00000000    
  -10.4300003       0.00000000    
  -10.3575001       0.00000000    
  -10.2849998       0.00000000    
  -10.2124996       0.00000000    
  -10.1400003       0.00000000    
  -10.0675001       0.00000000    
  -9.99499989       0.00000000    
  -9.92249966       0.00000000    
  -9.85000038       0.00000000    
  -9.77750015       0.00000000    
  -9.70499992       0.00000000    
  -9.63249969       0.00000000    
  -9.56000042       0.00000000    
  -9.48750019       0.00000000    
  -9.41499996       0.00000000    
  -9.34249973       0.00000000    
  -9.27000046       0.00000000    
  -9.19750023       0.00000000    
  -9.12500000       0.00000000    
  -9.05249977       0.00000000    
  -8.97999954       0.00000000    
  -8.90750027       0.00000000    
  -8.83500004       0.00000000    
  -8.76249981       0.00000000    
  -8.68999958       0.00000000    
  -8.61750031       0.00000000    
  -8.54500008       0.00000000    
  -8.47249985       0.00000000    
  -8.39999962       0.00000000    
  -8.32750034       0.00000000    
  -8.25500011       0.00000000    
  -8.18249989       0.00000000    
  -8.10999966       0.00000000    
  -8.03750038       0.00000000    
  -7.96500015       0.00000000    
  -7.89249992       0.00000000    
  -7.82000017       0.00000000    
  -7.74749994       0.00000000    
  -7.67500019       0.00000000    
  -7.60249996       0.00000000    
  -7.53000021       0.00000000    
  -7.45749998       0.00000000    
  -7.38500023       0.00000000    
  -7.31250000       0.00000000    
  -7.23999977       0.00000000    
  -7.16750002       0.00000000    
  -7.09499979       0.00000000    
  -7.02250004       0.00000000    
  -6.94999981       0.00000000    
  -6.87750006       0.00000000    
  -6.80499983       0.00000000    
  -6.73250008       0.00000000    
  -6.65999985       0.00000000    
  -6.58750010       0.00000000    
  -6.51499987       0.00000000    
  -6.44250011       0.00000000    
  -6.36999989       0.00000000    
  -6.29750013       0.00000000    
  -6.22499990       0.00000000    
  -6.15250015       0.00000000    
  -6.07999992       0.00000000    
  -6.00750017       0.00000000    
  -5.93499994       0.00000000    
  -5.86250019       0.00000000    
  -5.78999996       0.00000000    
  -5.71750021       0.00000000    
  -5.64499998       0.00000000    
  -5.57250023       0.00000000    
  -5.50000000       0.00000000    
  -5.42749977       0.00000000    
  -5.35500002       0.00000000    
  -5.28249979       0.00000000    
  -5.21000004       0.00000000    
  -5.13749981       0.00000000    
  -5.06500006       0.00000000    
  -4.99249983       0.00000000    
  -4.92000008       0.00000000    
  -4.84749985       0.00000000    
  -4.77500010       0.00000000    
  -4.70249987       0.00000000    
  -4.63000011       0.00000000    
  -4.55749989       0.00000000    
  -4.48500013       0.00000000    
  -4.41249990       0.00000000    
  -4.34000015       0.00000000    
  -4.26749992       0.00000000    
  -4.19500017       0.00000000    
  -4.12249994       0.00000000    
  -4.05000019       0.00000000    
  -3.97749996       0.00000000    
  -3.90499997       0.00000000    
  -3.83249998       0.00000000    
  -3.75999999       0.00000000    
  -3.68750000       0.00000000    
  -3.61500001       0.00000000    
  -3.54250002       0.00000000    
  -3.47000003       0.00000000    
  -3.39750004       0.00000000    
  -3.32500005       0.00000000    
  -3.25250006       0.00000000    
  -3.18000007       0.00000000    
  -3.10750008       0.00000000    
  -3.03500009       0.00000000    
  -2.96250010       0.00000000    
  -2.89000010       0.00000000    
  -2.81750011       0.00000000    
  -2.74499989       0.00000000    
  -2.67249990       0.00000000    
  -2.59999990       0.00000000    
  -2.52749991       0.00000000    
  -2.45499992       0.00000000    
  -2.38249993       0.00000000    
  -2.30999994       0.00000000    
  -2.23749995       0.00000000    
  -2.16499996       0.00000000    
  -2.09249997       0.00000000    
  -2.01999998       0.00000000    
  -1.94749999       0.00000000    
  -1.87500000       0.00000000    
  -1.80250001       0.00000000    
  -1.73000002       0.00000000    
  -1.65750003       0.00000000    
  -1.58500004       0.00000000    
  -1.51250005       0.00000000    
  -1.44000006       0.00000000    
  -1.36749995       0.00000000    
  -1.29499996       0.00000000    
  -1.22249997       0.00000000    
  -1.14999998       0.00000000    
  -1.07749999       0.00000000    
  -1.00500000       0.00000000    
 -0.932500005       0.00000000    
 -0.860000014       0.00000000    
 -0.787500024       0.00000000    
 -0.714999974       0.00000000    
 -0.642499983       0.00000000    
 -0.569999993       0.00000000    
 -0.497500002       0.00000000    
 -0.425000012       0.00000000    
 -0.352499992       0.00000000    
 -0.280000001       0.00000000    
 -0.207499996       0.00000000    
 -0.135000005       0.00000000    
  -6.25000000E-02   0.00000000    
   9.99999978E-03   0.00000000    
   8.25000033E-02   0.00000000    
  0.155000001       0.00000000    
  0.227500007       0.00000000    
  0.300000012       0.00000000    
  0.372500002       0.00000000    
  0.444999993       0.00000000    
  0.517499983       0.00000000    
  0.589999974       0.00000000    
  0.662500024       0.00000000    
  0.735000014       0.00000000    
  0.807500005       0.00000000    
  0.879999995       0.00000000    
  0.952499986       0.00000000    
   1.02499998       0.00000000    
   1.09749997       0.00000000    
   1.16999996       0.00000000    
   1.24249995       0.00000000    
   1.31500006       0.00000000    
   1.38750005       0.00000000    
   1.46000004       0.00000000    
   1.53250003       0.00000000    
   1.60500002       0.00000000    
   1.67750001       0.00000000    
   1.75000000       0.00000000    
   1.82249999       0.00000000    
   1.89499998       0.00000000    
   1.96749997       0.00000000    
   2.03999996       0.00000000    
   2.11249995       0.00000000    
   2.18499994       0.00000000    
   2.25749993      -0.00000000    
   2.32999992      -0.00000000    
   2.40249991       0.00000000    
   2.47499990      -0.00000000    
   2.54749990      -0.00000000    
   2.61999989      -0.00000000    
   2.69250011       1.53561362E-38
   2.76500010       4.29586065E-38
   2.83750010       3.52937001E-38
   2.91000009      -1.33656576E-37
   2.98250008      -5.72775030E-37
   3.05500007      -1.04356558E-36
   3.12750006      -1.25250929E-38
   3.20000005       5.05377551E-36
   3.27250004       1.36973963E-35
   3.34500003       1.52382969E-35
   3.41750002      -2.02401157E-35
   3.49000001      -1.26942129E-34
   3.56250000      -2.74045960E-34
   3.63499999      -2.44971278E-34
   3.70749998       4.24830867E-34
   3.77999997       2.14619187E-33
   3.85249996       4.26555676E-33
   3.92499995       3.55118386E-33
   3.99749994      -6.10491007E-33
   4.07000017      -2.92125099E-32
   4.14249992      -5.63683395E-32
   4.21500015      -4.82073760E-32
   4.28749990       6.44542302E-32
   4.36000013       3.28789038E-31
   4.43249989       6.42422521E-31
   4.50500011       6.00839926E-31
   4.57749987      -4.86639474E-31
   4.65000010      -3.10049913E-30
   4.72249985      -6.35866986E-30
   4.79500008      -6.68867345E-30
   4.86749983       2.04985639E-30
   4.94000006       2.45288981E-29
   5.01249981       5.47353563E-29
   5.08500004       6.53137312E-29
   5.15749979       7.47912249E-30
   5.23000002      -1.60781061E-28
   5.30249977      -4.08962461E-28
   5.37500000      -5.55194903E-28
   5.44750023      -2.53141343E-28
   5.51999998       8.38571468E-28
   5.59250021       2.63686984E-27
   5.66499996       4.09885886E-27
   5.73750019       3.03281562E-27
   5.80999994      -3.03746385E-27
   5.88250017      -1.44804217E-26
   5.95499992      -2.62394027E-26
   6.02750015      -2.60109288E-26
   6.09999990       2.15341501E-27
   6.17250013       6.57122613E-26
   6.24499989       1.44984388E-25
   6.31750011       1.79251113E-25
   6.38999987       7.75764335E-26
   6.46250010      -2.27044276E-25
   6.53499985      -6.83136337E-25
   6.60750008      -1.03180610E-24
   6.67999983      -8.15738037E-25
   6.75250006       4.13149678E-25
   6.82499981       2.66482184E-24
   6.89750004       5.02085945E-24
   6.96999979       5.46799252E-24
   7.04250002       1.54573518E-24
   7.11499977      -7.93326962E-24
   7.18750000      -2.05264053E-23
   7.26000023      -2.85978518E-23
   7.33249998      -2.06871815E-23
   7.40500021       1.25170950E-23
   7.47749996       6.82627910E-23
   7.55000019       1.22489210E-22
   7.62249994       1.29558350E-22
   7.69500017       3.94010621E-23
   7.76749992      -1.66174320E-22
   7.84000015      -4.30246353E-22
   7.91249990      -5.99058548E-22
   7.98500013      -4.57545535E-22
   8.05749989       1.57007756E-22
   8.13000011       1.18577835E-21
   8.20250034       2.20767619E-21
   8.27499962       2.45716929E-21
   8.34749985       1.11430538E-21
   8.42000008      -2.13436690E-21
   8.49250031      -6.46738230E-21
   8.56499958      -9.64025528E-21
   8.63749981      -8.50328180E-21
   8.71000004      -5.53217525E-22
   8.78250027       1.38261575E-20
   8.85499954       2.95143826E-20
   8.92749977       3.67637289E-20
   9.00000000       2.45659960E-20
   9.07250023      -1.27763110E-20
   9.14500046      -6.81481213E-20
   9.21749973      -1.17606174E-19
   9.28999996      -1.24833187E-19
   9.36250019      -5.66535291E-20
   9.43500042       9.34173064E-20
   9.50749969       2.83759941E-19
   9.57999992       4.20485115E-19
   9.65250015       3.83837783E-19
   9.72500038       8.71321620E-20
   9.79749966      -4.49148733E-19
   9.86999989      -1.04517010E-18
   9.94250011      -1.37654476E-18
   10.0150003      -1.08586325E-18
   10.0874996       2.14794878E-20
   10.1599998       1.76762272E-18
   10.2325001       3.49649121E-18
   10.3050003       4.19197267E-18
   10.3774996       2.87206807E-18
   10.4499998      -8.23572296E-19
   10.5225000      -6.09165499E-18
   10.5950003      -1.08052850E-17
   10.6674995      -1.20249520E-17
   10.7399998      -7.23182999E-18
   10.8125000       4.04961489E-18
   10.8850002       1.89562946E-17
   10.9575005       3.12001641E-17
   11.0299997       3.28235656E-17
   11.1025000       1.77117038E-17
   11.1750002      -1.42252037E-17
   11.2475004      -5.41537677E-17
   11.3199997      -8.48516909E-17
   11.3924999      -8.59443965E-17
   11.4650002      -4.31679522E-17
   11.5375004       4.14475753E-17
   11.6099997       1.43406807E-16
   11.6824999       2.18527671E-16
   11.7550001       2.17035133E-16
   11.8275003       1.06473749E-16
   11.8999996      -1.04611229E-16
   11.9724998      -3.53931446E-16
   12.0450001      -5.34498330E-16
   12.1175003      -5.29596868E-16
   12.1899996      -2.66441440E-16
   12.2624998       2.30852398E-16
   12.3350000       8.15381602E-16
   12.4075003       1.24159900E-15
   12.4799995       1.24634958E-15
   12.5524998       6.68357700E-16
   12.6250000      -4.37627090E-16
   12.6975002      -1.74878825E-15
   12.7700005      -2.73099622E-15
   12.8424997      -2.81498059E-15
   12.9150000      -1.64918903E-15
   12.9875002       6.64004056E-16
   13.0600004       3.46472305E-15
   13.1324997       5.65558308E-15
   13.2049999       6.06040300E-15
   13.2775002       3.93060176E-15
   13.3500004      -5.87447895E-16
   13.4224997      -6.24815717E-15
   13.4949999      -1.09343246E-14
   13.5675001      -1.23372238E-14
   13.6400003      -8.91153792E-15
   13.7124996      -7.56512177E-16
   13.7849998       9.98407222E-15
   13.8575001       1.95021764E-14
   13.9300003       2.35171312E-14
   14.0024996       1.89634278E-14
   14.0749998       5.57013779E-15
   14.1475000      -1.33648619E-14
   14.2200003      -3.15141285E-14
   14.2924995      -4.14346326E-14
   14.3649998      -3.73514221E-14
   14.4375000      -1.78389425E-14
   14.5100002       1.27212778E-14
   14.5825005       4.47372614E-14
   14.6549997       6.61990468E-14
   14.7275000       6.69387980E-14
   14.8000002       4.29099031E-14
   14.8725004      -1.21213136E-15
   14.9449997      -5.24043157E-14
   15.0174999      -9.29580848E-14
   15.0900002      -1.06483270E-13
   15.1625004      -8.42500305E-14
   15.2349997      -2.94598669E-14
   15.3074999       4.24657224E-14
   15.3800001       1.08171427E-13
   15.4525003       1.44109659E-13
   15.5249996       1.35146600E-13
   15.5974998       8.08276853E-14
   15.6700001      -3.31972668E-15
   15.7425003      -9.03899961E-14
   15.8149996      -1.51327464E-13
   15.8874998      -1.65558038E-13
   15.9600000      -1.28951578E-13
   16.0324993      -5.57425200E-14
   16.1049995       2.68248016E-14
   16.1774998       8.94756681E-14
   16.2500000       1.13316041E-13
   16.3225002       9.83699409E-14
   16.3950005       6.39279347E-14
   16.4675007       3.94087771E-14
   16.5400009       4.85589928E-14
   16.6124992       9.34909431E-14
   16.6849995       1.46596751E-13
   16.7574997       1.56600901E-13
   16.8299999       6.98911821E-14
   16.9025002      -1.38795063E-13
   16.9750004      -4.38598675E-13
   17.0475006      -7.32480157E-13
   17.1200008      -8.76086530E-13
   17.1924992      -7.26836777E-13
   17.2649994      -2.10890482E-13
   17.3374996       6.16553900E-13
   17.4099998       1.54696048E-12
   17.4825001       2.25245170E-12
   17.5550003       2.38132864E-12
   17.6275005       1.69252915E-12
   17.7000008       1.83607429E-13
   17.7724991      -1.84207250E-12
   17.8449993      -3.81096326E-12
   17.9174995      -5.02695715E-12
   17.9899998      -4.89671758E-12
   18.0625000      -3.16099816E-12
   18.1350002      -4.58958297E-14
   18.2075005       3.73361368E-12
   18.2800007       7.13761342E-12
   18.3525009       9.09163283E-12
   18.4249992       8.81290006E-12
   18.4974995       6.06492894E-12
   18.5699997       1.25715389E-12
   18.6424999      -4.63747964E-12
   18.7150002      -1.03100462E-11
   18.7875004      -1.44076261E-11
   18.8600006      -1.58042017E-11
   18.9325008      -1.37979029E-11
   19.0049992      -8.23167402E-12
   19.0774994       4.30648084E-13
   19.1499996       1.10448612E-11
   19.2224998       2.17608969E-11
   19.2950001       3.01094531E-11
   19.3675003       3.33114612E-11
   19.4400005       2.88852605E-11
   19.5125008       1.55100342E-11
   19.5849991      -6.06115722E-12
   19.6574993      -3.23883941E-11
   19.7299995      -5.74188440E-11
   19.8024998      -7.35073113E-11
   19.8750000      -7.33538300E-11
   19.9475002      -5.24558730E-11
   20.0200005      -1.13510408E-11
   20.0925007       4.31972097E-11
   20.1650009       9.87481971E-11
   20.2374992       1.39683945E-10
   20.3099995       1.51246668E-10
   20.3824997       1.24102548E-10
   20.4549999       5.80790034E-11
   20.5275002      -3.62093654E-11
   20.6000004      -1.38630232E-10
   20.6725006      -2.23677382E-10
   20.7450008      -2.66603822E-10
   20.8174992      -2.50011428E-10
   20.8899994      -1.69145614E-10
   20.9624996      -3.44268364E-11
   21.0349998       1.29553673E-10
   21.1075001       2.88458979E-10
   21.1800003       4.05115830E-10
   21.2525005       4.47436282E-10
   21.3250008       3.95725924E-10
   21.3974991       2.47957349E-10
   21.4699993       2.20153930E-11
   21.5424995      -2.45570647E-10
   21.6149998      -5.04413733E-10
   21.6875000      -6.98155478E-10
   21.7600002      -7.74620368E-10
   21.8325005      -6.96948110E-10
   21.9050007      -4.53926619E-10
   21.9775009      -6.73386139E-11
   22.0499992       4.05974560E-10
   22.1224995       8.79192608E-10
   22.1949997       1.24847066E-09
   22.2674999       1.41272216E-09
   22.3400002       1.29711675E-09
   22.4125004       8.75367390E-10
   22.4850006       1.85014781E-10
   22.5575008      -6.69495293E-10
   22.6299992      -1.52896329E-09
   22.7024994      -2.20639551E-09
   22.7749996      -2.52451104E-09
   22.8474998      -2.35635556E-09
   22.9200001      -1.66004910E-09
   22.9925003      -4.99325692E-10
   23.0650005       9.55823087E-10
   23.1375008       2.45012499E-09
   23.2099991       3.68314512E-09
   23.2824993       4.36254455E-09
   23.3549995       4.26217328E-09
   23.4274998       3.27559091E-09
   23.5000000       1.45546386E-09
   23.5725002      -9.70108882E-10
   23.6450005      -3.61166719E-09
   23.7175007      -5.96693450E-09
   23.7900009      -7.50239604E-09
   23.8624992      -7.75880338E-09
   23.9349995      -6.46295106E-09
   24.0074997      -3.62129882E-09
   24.0799999       4.30893404E-10
   24.1525002       5.04598052E-09
   24.2250004       9.35414501E-09
   24.2975006       1.24179342E-08
   24.3700008       1.34237874E-08
   24.4424992       1.18707897E-08
   24.5149994       7.71406761E-09
   24.5874996       1.42814927E-09
   24.6599998      -6.02824413E-09
   24.7325001      -1.33448275E-08
   24.8050003      -1.90707254E-08
   24.8775005      -2.18717737E-08
   24.9500008      -2.07949711E-08
   25.0224991      -1.54981272E-08
   25.0949993      -6.40294529E-09
   25.1674995       5.26684651E-09
   25.2399998       1.75916224E-08
   25.3125000       2.82173485E-08
   25.3850002       3.47548124E-08
   25.4575005       3.52630352E-08
   25.5300007       2.87287172E-08
   25.6025009       1.54329456E-08
   25.6749992      -2.89979041E-09
   25.7474995      -2.32415385E-08
   25.8199997      -4.17026911E-08
   25.8924999      -5.42192069E-08
   25.9650002      -5.73666235E-08
   26.0375004      -4.91442087E-08
   26.1100006      -2.95677847E-08
   26.1825008      -9.37702915E-10
   26.2549992       3.22990807E-08
   26.3274994       6.41088178E-08
   26.3999996       8.78008564E-08
   26.4724998       9.72122578E-08
   26.5450001       8.79766091E-08
   26.6175003       5.86650373E-08
   26.6900005       1.15691838E-08
   26.7625008      -4.70867825E-08
   26.8349991      -1.07654088E-07
   26.9074993      -1.58324085E-07
   26.9799995      -1.87038978E-07
   27.0524998      -1.83782788E-07
   27.1250000      -1.42862788E-07
   27.1975002      -6.47334986E-08
   27.2700005       4.30541149E-08
   27.3425007       1.66076447E-07
   27.4150009       2.84543916E-07
   27.4874992       3.75979141E-07
   27.5599995       4.18739319E-07
   27.6324997       3.95880306E-07
   27.7049999       2.98752724E-07
   27.7775002       1.29697185E-07
   27.8500004      -9.67175993E-08
   27.9225006      -3.54295963E-07
   27.9950008      -6.07772449E-07
   28.0674992      -8.17117211E-07
   28.1399994      -9.43053465E-07
   28.2124996      -9.52987818E-07
   28.2849998      -8.26424639E-07
   28.3575001      -5.58986756E-07
   28.4300003      -1.64389277E-07
   28.5025005       3.25932916E-07
   28.5750008       8.65454012E-07
   28.6474991       1.39702206E-06
   28.7199993       1.85851957E-06
   28.7924995       2.18901232E-06
   28.8649998       2.33470428E-06
   28.9375000       2.25410213E-06
   29.0100002       1.92189214E-06
   29.0825005       1.33112462E-06
   29.1550007       4.93444986E-07
   29.2275009      -5.62676348E-07
   29.2999992      -1.79545123E-06
   29.3724995      -3.15439320E-06
   29.4449997      -4.58514523E-06
   29.5174999      -6.03351009E-06
   29.5900002      -7.44789850E-06
   29.6625004      -8.77992898E-06
   29.7350006      -9.98355608E-06
   29.8075008      -1.10137526E-05
   29.8799992      -1.18260286E-05
   29.9524994      -1.23779337E-05
   30.0249996      -1.26330306E-05
   30.0974998      -1.25669612E-05
   30.1700001      -1.21743333E-05
   30.2425003      -1.14746226E-05
   30.3150005      -1.05153440E-05
   30.3875008      -9.37121149E-06
   30.4599991      -8.13896895E-06
   30.5324993      -6.92847425E-06
   30.6049995      -5.85135058E-06
   30.6774998      -5.00885972E-06
   30.7500000      -4.48055243E-06
   30.8225002      -4.31498938E-06
   30.8950005      -4.52341601E-06
   30.9675007      -5.07700088E-06
   31.0400009      -5.90805530E-06
   31.1124992      -6.91545483E-06
   31.1849995      -7.97421126E-06
   31.2574997      -8.94864752E-06
   31.3299999      -9.70799920E-06
   31.4025002      -1.01426322E-05
   31.4750004      -1.01786209E-05
   31.5475006      -9.78843218E-06
   31.6200008      -8.99589213E-06
   31.6924992      -7.87446697E-06
   31.7649994      -6.53896950E-06
   31.8374996      -5.13182931E-06
   31.9099998      -3.80588290E-06
   31.9825001      -2.70610349E-06
   32.0550003      -1.95276084E-06
   32.1274986      -1.62822403E-06
   32.2000008      -1.76902927E-06
   32.2724991      -2.36403162E-06
   32.3450012      -3.35850359E-06
   32.4174995      -4.66309075E-06
   32.4900017      -6.16578018E-06
   32.5625000      -7.74466662E-06
   32.6349983      -9.27944529E-06
   32.7075005      -1.06602320E-05
   32.7799988      -1.17933278E-05
   32.8525009      -1.26045206E-05
   32.9249992      -1.30411609E-05
   32.9975014      -1.30742947E-05
   33.0699997      -1.27015119E-05
   33.1425018      -1.19502174E-05
   33.2150002      -1.08800659E-05
   33.2874985      -9.58282271E-06
   33.3600006      -8.17808450E-06
   33.4324989      -6.80417770E-06
   33.5050011      -5.60476610E-06
   33.5774994      -4.71287376E-06
   33.6500015      -4.23477013E-06
   33.7224998      -4.23625579E-06
   33.7949982      -4.73340833E-06
   33.8675003      -5.68903397E-06
   33.9399986      -7.01519275E-06
   34.0125008      -8.58145904E-06
   34.0849991      -1.02280301E-05
   34.1575012      -1.17824065E-05
   34.2299995      -1.30779545E-05
   34.3025017      -1.39722551E-05
   34.3750000      -1.43628940E-05
   34.4474983      -1.41984137E-05
   34.5200005      -1.34827660E-05
   34.5924988      -1.22727024E-05
   34.6650009      -1.06689340E-05
   34.7374992      -8.80306561E-06
   34.8100014      -6.82294240E-06
   34.8824997      -4.87879970E-06
   34.9550018      -3.11168537E-06
   35.0275002      -1.64438347E-06
   35.0999985      -5.74123817E-07
   35.1725006       3.38877122E-08
   35.2449989       1.52505280E-07
   35.3175011      -2.02434222E-07
   35.3899994      -9.69990651E-07
   35.4625015      -2.04683056E-06
   35.5349998      -3.29616637E-06
   35.6074982      -4.56284033E-06
   35.6800003      -5.69262556E-06
   35.7524986      -6.55232134E-06
   35.8250008      -7.04663626E-06
   35.8974991      -7.12841074E-06
   35.9700012      -6.80029962E-06
   36.0424995      -6.10806865E-06
   36.1150017      -5.12758425E-06
   36.1875000      -3.94890048E-06
   36.2599983      -2.66119696E-06
   36.3325005      -1.34181334E-06
   36.4049988      -5.12962792E-08
   36.4775009       1.16530418E-06
   36.5499992       2.27237524E-06
   36.6225014       3.23573181E-06
   36.6949997       4.01606121E-06
   36.7675018       4.56689122E-06
   36.8400002       4.83887607E-06
   36.9124985       4.79025448E-06
   36.9850006       4.40123631E-06
   37.0574989       3.68836868E-06
   37.1300011       2.71425188E-06
   37.2024994       1.58853425E-06
   37.2750015       4.57955650E-07
   37.3474998      -5.14122007E-07
   37.4199982      -1.17537502E-06
   37.4925003      -1.41374881E-06
   37.5649986      -1.18155970E-06
   37.6375008      -5.08320966E-07
   37.7099991       5.01664886E-07
   37.7825012       1.68752013E-06
   37.8549995       2.86258319E-06
   37.9275017       3.85132671E-06
   38.0000000       4.52420454E-06
   38.0724983       4.82252062E-06
   38.1450005       4.76774085E-06
   38.2174988       4.45340356E-06
   38.2900009       4.02195428E-06
   38.3624992       3.63225377E-06
   38.4350014       3.42535395E-06
   38.5074997       3.49598554E-06
   38.5800018       3.87535329E-06
   38.6525002       4.52785298E-06
   38.7249985       5.36114158E-06
   38.7975006       6.24632366E-06
   38.8699989       7.04334934E-06
   38.9425011       7.62626269E-06
   39.0149994       7.90357626E-06
   39.0875015       7.83059022E-06
   39.1599998       7.41246276E-06
   39.2324982       6.69895053E-06
   39.3050003       5.77345281E-06
   39.3774986       4.73985074E-06
   39.4500008       3.71047372E-06
   39.5224991       2.79729579E-06
   39.5950012       2.10657413E-06
   39.6674995       1.73532555E-06
   39.7400017       1.76694220E-06
   39.8125000       2.26352813E-06
   39.8849983       3.25411520E-06
   39.9575005       4.72041665E-06
   40.0299988       6.58415001E-06
   40.1025009       8.70122858E-06
   40.1749992       1.08674985E-05
   40.2475014       1.28381516E-05
   40.3199997       1.43591342E-05
   40.3925018       1.52049979E-05
   40.4650002       1.52152097E-05
   40.5374985       1.43207690E-05
   40.6100006       1.25553561E-05
   40.6824989       1.00493517E-05
   40.7550011       7.00954160E-06
   40.8274994       3.69052577E-06
   40.9000015       3.64882652E-07
   40.9724998      -2.70228952E-06
   41.0449982      -5.27182237E-06
   41.1175003      -7.14252064E-06
   41.1899986      -8.15951353E-06
   41.2625008      -8.22188667E-06
   41.3349991      -7.29114709E-06
   41.4075012      -5.39979237E-06
   41.4799995      -2.65743438E-06
   41.5525017       7.48754360E-07
   41.6250000       4.56163207E-06
   41.6974983       8.47033243E-06
   41.7700005       1.21338817E-05
   41.8424988       1.52097209E-05
   41.9150009       1.73843036E-05
   41.9874992       1.84033106E-05
   42.0600014       1.80992629E-05