  -20.0000000         0.0000000
  -19.9700000         0.0000000
  -19.9400000         0.0000000
  -19.9100000         0.0000000
  -19.8800000         0.0000000
  -19.8500000         0.0000000
  -19.8200000         0.0000000
  -19.7900000         0.0000000
  -19.7600000         0.0000000
  -19.7300000         0.0000000
  -19.7000000         0.0000000
  -19.6700000         0.0000000
  -19.6400000         0.0000000
  -19.6100000         0.0000000
  -19.5800000         0.0000000
  -19.5500000         0.0000000
  -19.5200000         0.0000000
  -19.4900000         0.0000000
  -19.4600000         0.0000000
  -19.4300000         0.0000000
  -19.4000000         0.0000000
  -19.3700000         0.0000000
  -19.3400000         0.0000000
  -19.3100000         0.0000000
  -19.2800000         0.0000000
  -19.2500000         0.0000000
  -19.2200000         0.0000000
  -19.1900000         0.0000000
  -19.1600000         0.0000000
  -19.1300000         0.0000000
  -19.1000000         0.0000000
  -19.0700000         0.0000000
  -19.0400000         0.0000000
  -19.0100000         0.0000000
  -18.9800000         0.0000000
  -18.9500000         0.0000000
  -18.9200000         0.0000000
  -18.8900000         0.0000000
  -18.8600000         0.0000000
  -18.8300000         0.0000000
  -18.8000000         0.0000000
  -18.7700000         0.0000000
  -18.7400000         0.0000000
  -18.7100000         0.0000000
  -18.6800000         0.0000000
  -18.6500000         0.0000000
  -18.6200000         0.0000000
  -18.5900000         0.0000000
  -18.5600000         0.0000000
  -18.5300000         0.0000000
  -18.5000000         0.0000000
  -18.4700000         0.0000000
  -18.4400000         0.0000000
  -18.4100000         0.0000000
  -18.3800000         0.0000000
  -18.3500000         0.0000000
  -18.3200000         0.0000000
  -18.2900000         0.0000000
  -18.2600000         0.0000000
  -18.2300000         0.0000000
  -18.2000000         0.0000000
  -18.1700000         0.0000000
  -18.1400000         0.0000000
  -18.1100000         0.0000000
  -18.0800000         0.0000000
  -18.0500000         0.0000000
  -18.0200000         0.0000000
  -17.9900000         0.0000000
  -17.9600000         0.0000000
  -17.9300000         0.0000000
  -17.9000000         0.0000000
  -17.8700000         0.0000000
  -17.8400000         0.0000000
  -17.8100000         0.0000000
  -17.7800000         0.0000000
  -17.7500000         0.0000000
  -17.7200000         0.0000000
  -17.6900000         0.0000000
  -17.6600000         0.0000000
  -17.6300000         0.0000000
  -17.6000000         0.0000000
  -17.5700000         0.0000000
  -17.5400000         0.0000000
  -17.5100000         0.0000000
  -17.4800000         0.0000000
  -17.4500000         0.0000000
  -17.4200000         0.0000000
  -17.3900000         0.0000000
  -17.3600000         0.0000000
  -17.3300000         0.0000000
  -17.3000000         0.0000000
  -17.2700000         0.0000000
  -17.2400000         0.0000000
  -17.2100000         0.0000000
  -17.1800000         0.0000000
  -17.1500000         0.0000000
  -17.1200000         0.0000000
  -17.0900000         0.0000000
  -17.0600000         0.0000000
  -17.0300000         0.0000000
  -17.0000000         0.0000000
  -16.9700000         0.0000000
  -16.9400000         0.0000000
  -16.9100000         0.0000000
  -16.8800000         0.0000000
  -16.8500000         0.0000000
  -16.8200000         0.0000000
  -16.7900000         0.0000000
  -16.7600000         0.0000000
  -16.7300000         0.0000000
  -16.7000000         0.0000000
  -16.6700000         0.0000000
  -16.6400000         0.0000000
  -16.6100000         0.0000000
  -16.5800000         0.0000000
  -16.5500000         0.0000000
  -16.5200000         0.0000000
  -16.4900000         0.0000000
  -16.4600000         0.0000000
  -16.4300000         0.0000000
  -16.4000000         0.0000000
  -16.3700000         0.0000000
  -16.3400000         0.0000000
  -16.3100000         0.0000000
  -16.2800000         0.0000000
  -16.2500000         0.0000000
  -16.2200000         0.0000000
  -16.1900000         0.0000000
  -16.1600000         0.0000000
  -16.1300000         0.0000000
  -16.1000000         0.0000000
  -16.0700000         0.0000000
  -16.0400000         0.0000000
  -16.0100000         0.0000000
  -15.9800000         0.0000000
  -15.9500000         0.0000000
  -15.9200000         0.0000000
  -15.8900000         0.0000000
  -15.8600000         0.0000000
  -15.8300000         0.0000000
  -15.8000000         0.0000000
  -15.7700000         0.0000000
  -15.7400000         0.0000000
  -15.7100000         0.0000000
  -15.6800000         0.0000000
  -15.6500000         0.0000000
  -15.6200000         0.0000000
  -15.5900000         0.0000000
  -15.5600000         0.0000000
  -15.5300000         0.0000000
  -15.5000000         0.0000000
  -15.4700000         0.0000000
  -15.4400000         0.0000000
  -15.4100000         0.0000000
  -15.3800000         0.0000000
  -15.3500000         0.0000000
  -15.3200000         0.0000000
  -15.2900000         0.0000000
  -15.2600000         0.0000000
  -15.2300000         0.0000000
  -15.2000000         0.0000000
  -15.1700000         0.0000000
  -15.1400000         0.0000000
  -15.1100000         0.0000000
  -15.0800000         0.0000000
  -15.0500000         0.0000000
  -15.0200000         0.0000000
  -14.9900000         0.0000000
  -14.9600000         0.0000000
  -14.9300000         0.0000000
  -14.9000000         0.0000000
  -14.8700000         0.0000000
  -14.8400000         0.0000000
  -14.8100000         0.0000000
  -14.7800000         0.0000000
  -14.7500000         0.0000000
  -14.7200000         0.0000000
  -14.6900000         0.0000000
  -14.6600000         0.0000000
  -14.6300000         0.0000000
  -14.6000000         0.0000000
  -14.5700000         0.0000000
  -14.5400000         0.0000000
  -14.5100000         0.0000000
  -14.4800000         0.0000000
  -14.4500000         0.0000000
  -14.4200000         0.0000000
  -14.3900000         0.0000000
  -14.3600000         0.0000000
  -14.3300000         0.0000000
  -14.3000000         0.0000000
  -14.2700000         0.0000000
  -14.2400000         0.0000000
  -14.2100000         0.0000000
  -14.1800000         0.0000000
  -14.1500000         0.0000000
  -14.1200000         0.0000000
  -14.0900000         0.0000000
  -14.0600000         0.0000000
  -14.0300000         0.0000000
  -14.0000000         0.0000000
  -13.9700000         0.0000000
  -13.9400000         0.0000000
  -13.9100000         0.0000000
  -13.8800000         0.0000000
  -13.8500000         0.0000000
  -13.8200000         0.0000000
  -13.7900000         0.0000000
  -13.7600000         0.0000000
  -13.7300000         0.0000000
  -13.7000000         0.0000000
  -13.6700000         0.0000000
  -13.6400000         0.0000000
  -13.6100000         0.0000000
  -13.5800000         0.0000000
  -13.5500000         0.0000000
  -13.5200000         0.0000000
  -13.4900000         0.0000000
  -13.4600000         0.0000000
  -13.4300000         0.0000000
  -13.4000000         0.0000000
  -13.3700000         0.0000000
  -13.3400000         0.0000000
  -13.3100000         0.0000000
  -13.2800000         0.0000000
  -13.2500000         0.0000000
  -13.2200000         0.0000000
  -13.1900000         0.0000000
  -13.1600000         0.0000000
  -13.1300000         0.0000000
  -13.1000000         0.0000000
  -13.0700000         0.0000000
  -13.0400000         0.0000000
  -13.0100000         0.0000000
  -12.9800000         0.0000000
  -12.9500000         0.0000000
  -12.9200000         0.0000000
  -12.8900000         0.0000000
  -12.8600000         0.0000000
  -12.8300000         0.0000000
  -12.8000000         0.0000000
  -12.7700000         0.0000000
  -12.7400000         0.0000000
  -12.7100000         0.0000000
  -12.6800000         0.0000000
  -12.6500000         0.0000000
  -12.6200000         0.0000000
  -12.5900000         0.0000000
  -12.5600000         0.0000000
  -12.5300000         0.0000000
  -12.5000000         0.0000000
  -12.4700000         0.0000000
  -12.4400000         0.0000000
  -12.4100000         0.0000000
  -12.3800000         0.0000000
  -12.3500000         0.0000000
  -12.3200000         0.0000000
  -12.2900000         0.0000000
  -12.2600000         0.0000000
  -12.2300000         0.0000000
  -12.2000000         0.0000000
  -12.1700000         0.0000000
  -12.1400000         0.0000000
  -12.1100000         0.0000000
  -12.0800000         0.0000000
  -12.0500000         0.0000000
  -12.0200000         0.0000000
  -11.9900000         0.0000000
  -11.9600000         0.0000000
  -11.9300000         0.0000000
  -11.9000000         0.0000000
  -11.8700000         0.0000000
  -11.8400000         0.0000000
  -11.8100000         0.0000000
  -11.7800000         0.0000000
  -11.7500000         0.0000000
  -11.7200000         0.0000000
  -11.6900000         0.0000000
  -11.6600000         0.0000000
  -11.6300000         0.0000000
  -11.6000000         0.0000000
  -11.5700000         0.0000000
  -11.5400000         0.0000000
  -11.5100000         0.0000000
  -11.4800000         0.0000000
  -11.4500000         0.0000000
  -11.4200000         0.0000000
  -11.3900000         0.0000000
  -11.3600000         0.0000000
  -11.3300000         0.0000000
  -11.3000000         0.0000000
  -11.2700000         0.0000000
  -11.2400000         0.0000000
  -11.2100000         0.0000000
  -11.1800000         0.0000000
  -11.1500000         0.0000000
  -11.1200000         0.0000000
  -11.0900000         0.0000000
  -11.0600000         0.0000000
  -11.0300000         0.0000000
  -11.0000000         0.0000000
  -10.9700000         0.0000000
  -10.9400000         0.0000000
  -10.9100000         0.0000000
  -10.8800000         0.0000000
  -10.8500000         0.0000000
  -10.8200000         0.0000000
  -10.7900000         0.0000000
  -10.7600000         0.0000000
  -10.7300000         0.0000000
  -10.7000000         0.0000000
  -10.6700000         0.0000000
  -10.6400000         0.0000000
  -10.6100000         0.0000000
  -10.5800000         0.0000000
  -10.5500000         0.0000000
  -10.5200000         0.0000000
  -10.4900000         0.0000000
  -10.4600000         0.0000000
  -10.4300000         0.0000000
  -10.4000000         0.0000000
  -10.3700000         0.0000000
  -10.3400000         0.0000000
  -10.3100000         0.0000000
  -10.2800000         0.0000000
  -10.2500000         0.0000000
  -10.2200000         0.0000000
  -10.1900000         0.0000000
  -10.1600000         0.0000000
  -10.1300000         0.0000000
  -10.1000000         0.0000000
  -10.0700000         0.0000000
  -10.0400000         0.0000000
  -10.0100000         0.0000000
   -9.9800000         0.0000000
   -9.9500000         0.0000000
   -9.9200000         0.0000000
   -9.8900000         0.0000000
   -9.8600000         0.0000000
   -9.8300000         0.0000000
   -9.8000000         0.0000000
   -9.7700000         0.0000000
   -9.7400000         0.0000000
   -9.7100000         0.0000000
   -9.6800000         0.0000000
   -9.6500000         0.0000000
   -9.6200000         0.0000000
   -9.5900000         0.0000000
   -9.5600000         0.0000000
   -9.5300000         0.0000000
   -9.5000000         0.0000000
   -9.4700000         0.0000000
   -9.4400000         0.0000000
   -9.4100000         0.0000000
   -9.3800000         0.0000000
   -9.3500000         0.0000000
   -9.3200000         0.0000000
   -9.2900000         0.0000000
   -9.2600000         0.0000000
   -9.2300000         0.0000000
   -9.2000000         0.0000000
   -9.1700000         0.0000000
   -9.1400000         0.0000000
   -9.1100000         0.0000000
   -9.0800000         0.0000000
   -9.0500000         0.0000000
   -9.0200000         0.0000000
   -8.9900000         0.0000000
   -8.9600000         0.0000000
   -8.9300000         0.0000000
   -8.9000000         0.0000000
   -8.8700000         0.0000000
   -8.8400000         0.0000000
   -8.8100000         0.0000000
   -8.7800000         0.0000000
   -8.7500000         0.0000000
   -8.7200000         0.0000000
   -8.6900000         0.0000000
   -8.6600000         0.0000000
   -8.6300000         0.0000000
   -8.6000000         0.0000000
   -8.5700000         0.0000000
   -8.5400000         0.0000000
   -8.5100000         0.0000000
   -8.4800000         0.0000000
   -8.4500000         0.0000000
   -8.4200000         0.0000000
   -8.3900000         0.0000000
   -8.3600000         0.0000000
   -8.3300000         0.0000000
   -8.3000000         0.0000000
   -8.2700000         0.0000000
   -8.2400000         0.0000000
   -8.2100000         0.0000000
   -8.1800000         0.0000000
   -8.1500000         0.0000000
   -8.1200000         0.0000000
   -8.0900000         0.0000000
   -8.0600000         0.0000000
   -8.0300000         0.0000000
   -8.0000000         0.0000000
   -7.9700000         0.0000000
   -7.9400000         0.0000000
   -7.9100000         0.0000000
   -7.8800000         0.0000000
   -7.8500000         0.0000000
   -7.8200000         0.0000000
   -7.7900000         0.0000000
   -7.7600000         0.0000000
   -7.7300000         0.0000000
   -7.7000000         0.0000000
   -7.6700000         0.0000000
   -7.6400000         0.0000000
   -7.6100000         0.0000000
   -7.5800000         0.0000000
   -7.5500000         0.0000000
   -7.5200000         0.0000000
   -7.4900000         0.0000000
   -7.4600000         0.0000000
   -7.4300000         0.0000000
   -7.4000000         0.0000000
   -7.3700000         0.0000000
   -7.3400000         0.0000000
   -7.3100000         0.0000000
   -7.2800000         0.0000000
   -7.2500000         0.0000000
   -7.2200000         0.0000000
   -7.1900000         0.0000000
   -7.1600000         0.0000000
   -7.1300000         0.0000000
   -7.1000000         0.0000000
   -7.0700000         0.0000000
   -7.0400000         0.0000000
   -7.0100000         0.0000000
   -6.9800000         0.0000000
   -6.9500000         0.0000000
   -6.9200000         0.0000000
   -6.8900000         0.0000000
   -6.8600000         0.0000000
   -6.8300000         0.0000000
   -6.8000000         0.0000000
   -6.7700000         0.0000000
   -6.7400000         0.0000000
   -6.7100000         0.0000000
   -6.6800000         0.0000000
   -6.6500000         0.0000000
   -6.6200000         0.0000000
   -6.5900000         0.0000000
   -6.5600000         0.0000000
   -6.5300000         0.0000000
   -6.5000000         0.0000000
   -6.4700000         0.0000000
   -6.4400000         0.0000000
   -6.4100000         0.0000000
   -6.3800000         0.0000000
   -6.3500000         0.0000000
   -6.3200000         0.0000000
   -6.2900000         0.0000000
   -6.2600000         0.0000000
   -6.2300000         0.0000000
   -6.2000000         0.0000000
   -6.1700000         0.0000000
   -6.1400000         0.0000000
   -6.1100000         0.0000000
   -6.0800000         0.0000000
   -6.0500000         0.0000000
   -6.0200000         0.0000000
   -5.9900000         0.0000000
   -5.9600000         0.0000000
   -5.9300000         0.0000000
   -5.9000000         0.0000000
   -5.8700000         0.0000000
   -5.8400000         0.0000000
   -5.8100000         0.0000000
   -5.7800000         0.0000000
   -5.7500000         0.0000000
   -5.7200000         0.0000000
   -5.6900000         0.0000000
   -5.6600000         0.0000000
   -5.6300000         0.0000000
   -5.6000000         0.0000000
   -5.5700000         0.0000000
   -5.5400000         0.0000000
   -5.5100000         0.0000000
   -5.4800000         0.0000000
   -5.4500000         0.0000000
   -5.4200000         0.0000000
   -5.3900000         0.0000000
   -5.3600000         0.0000000
   -5.3300000         0.0000000
   -5.3000000         0.0000000
   -5.2700000         0.0000000
   -5.2400000         0.0000000
   -5.2100000         0.0000000
   -5.1800000         0.0000000
   -5.1500000         0.0000000
   -5.1200000         0.0000000
   -5.0900000         0.0000000
   -5.0600000         0.0000000
   -5.0300000         0.0000000
   -5.0000000         0.0000000
   -4.9700000         0.0000000
   -4.9400000         0.0000000
   -4.9100000         0.0000000
   -4.8800000         0.0000000
   -4.8500000         0.0000000
   -4.8200000         0.0000000
   -4.7900000         0.0000000
   -4.7600000         0.0000000
   -4.7300000         0.0000000
   -4.7000000         0.0000000
   -4.6700000         0.0000000
   -4.6400000         0.0000000
   -4.6100000         0.0000000
   -4.5800000         0.0000000
   -4.5500000         0.0000000
   -4.5200000         0.0000000
   -4.4900000         0.0000000
   -4.4600000         0.0000000
   -4.4300000         0.0000000
   -4.4000000         0.0000000
   -4.3700000         0.0000000
   -4.3400000         0.0000000
   -4.3100000         0.0000000
   -4.2800000         0.0000000
   -4.2500000         0.0000000
   -4.2200000         0.0000000
   -4.1900000         0.0000000
   -4.1600000         0.0000000
   -4.1300000         0.0000000
   -4.1000000         0.0000000
   -4.0700000         0.0000000
   -4.0400000         0.0000000
   -4.0100000         0.0000000
   -3.9800000         0.0000000
   -3.9500000         0.0000000
   -3.9200000         0.0000000
   -3.8900000         0.0000000
   -3.8600000         0.0000000
   -3.8300000         0.0000000
   -3.8000000         0.0000000
   -3.7700000         0.0000000
   -3.7400000         0.0000000
   -3.7100000         0.0000000
   -3.6800000         0.0000000
   -3.6500000         0.0000000
   -3.6200000         0.0000000
   -3.5900000         0.0000000
   -3.5600000         0.0000000
   -3.5300000         0.0000000
   -3.5000000         0.0000000
   -3.4700000         0.0000000
   -3.4400000         0.0000000
   -3.4100000         0.0000000
   -3.3800000         0.0000000
   -3.3500000         0.0000000
   -3.3200000         0.0000000
   -3.2900000         0.0000000
   -3.2600000         0.0000000
   -3.2300000         0.0000000
   -3.2000000         0.0000000
   -3.1700000         0.0000000
   -3.1400000         0.0000000
   -3.1100000         0.0000000
   -3.0800000         0.0000000
   -3.0500000         0.0000000
   -3.0200000         0.0000000
   -2.9900000         0.0000000
   -2.9600000         0.0000000
   -2.9300000         0.0000000
   -2.9000000         0.0000000
   -2.8700000         0.0000000
   -2.8400000         0.0000000
   -2.8100000         0.0000000
   -2.7800000         0.0000000
   -2.7500000         0.0000000
   -2.7200000         0.0000000
   -2.6900000         0.0000000
   -2.6600000         0.0000000
   -2.6300000         0.0000000
   -2.6000000         0.0000000
   -2.5700000         0.0000000
   -2.5400000         0.0000000
   -2.5100000         0.0000000
   -2.4800000         0.0000000
   -2.4500000         0.0000000
   -2.4200000         0.0000000
   -2.3900000         0.0000000
   -2.3600000         0.0000000
   -2.3300000         0.0000000
   -2.3000000         0.0000000
   -2.2700000         0.0000000
   -2.2400000         0.0000000
   -2.2100000         0.0000000
   -2.1800000         0.0000000
   -2.1500000         0.0000000
   -2.1200000         0.0000000
   -2.0900000         0.0000000
   -2.0600000         0.0000000
   -2.0300000         0.0000000
   -2.0000000         0.0000000
   -1.9700000         0.0000000
   -1.9400000         0.0000000
   -1.9100000         0.0000000
   -1.8800000         0.0000000
   -1.8500000         0.0000000
   -1.8200000         0.0000000
   -1.7900000         0.0000000
   -1.7600000         0.0000000
   -1.7300000         0.0000000
   -1.7000000         0.0000000
   -1.6700000         0.0000000
   -1.6400000         0.0000000
   -1.6100000         0.0000000
   -1.5800000         0.0000000
   -1.5500000         0.0000000
   -1.5200000         0.0000000
   -1.4900000         0.0000000
   -1.4600000         0.0000000
   -1.4300000         0.0000000
   -1.4000000         0.0000000
   -1.3700000         0.0000000
   -1.3400000         0.0000000
   -1.3100000         0.0000000
   -1.2800000         0.0000000
   -1.2500000         0.0000000
   -1.2200000         0.0000000
   -1.1900000         0.0000000
   -1.1600000         0.0000000
   -1.1300000         0.0000000
   -1.1000000         0.0000000
   -1.0700000         0.0000000
   -1.0400000         0.0000000
   -1.0100000         0.0000000
   -0.9800000         0.0000000
   -0.9500000         0.0000000
   -0.9200000         0.0000000
   -0.8900000         0.0000000
   -0.8600000         0.0000000
   -0.8300000         0.0000000
   -0.8000000         0.0000000
   -0.7700000         0.0000000
   -0.7400000         0.0000000
   -0.7100000         0.0000000
   -0.6800000         0.0000000
   -0.6500000         0.0000000
   -0.6200000         0.0000000
   -0.5900000         0.0000000
   -0.5600000         0.0000000
   -0.5300000         0.0000000
   -0.5000000         0.0000000
   -0.4700000         0.0000000
   -0.4400000         0.0000000
   -0.4100000         0.0000000
   -0.3800000         0.0000000
   -0.3500000         0.0000000
   -0.3200000         0.0000000
   -0.2900000         0.0000000
   -0.2600000         0.0000000
   -0.2300000         0.0000000
   -0.2000000         0.0000000
   -0.1700000         0.0000000
   -0.1400000         0.0000000
   -0.1100000         0.0000000
   -0.0800000         0.0000000
   -0.0500000         0.0000000
   -0.0200000         0.0000000
    0.0100000         0.0000000
    0.0400000         0.0000000
    0.0700000         0.0000000
    0.1000000         0.0000000
    0.1300000         0.0000000
    0.1600000         0.0000000
    0.1900000         0.0000000
    0.2200000         0.0000000
    0.2500000         0.0000000
    0.2800000         0.0000000
    0.3100000         0.0000000
    0.3400000        -0.0000000
    0.3700000        -0.0000000
    0.4000000        -0.0000000
    0.4300000        -0.0000000
    0.4600000        -0.0000000
    0.4900000        -0.0000000
    0.5200000        -0.0000000
    0.5500000         0.0000000
    0.5800000         0.0000000
    0.6100000         0.0000000
    0.6400000         0.0000000
    0.6700000         0.0000000
    0.7000000         0.0000000
    0.7300000         0.0000000
    0.7600000         0.0000000
    0.7900000         0.0000000
    0.8200000         0.0000000
    0.8500000        -0.0000000
    0.8800000        -0.0000000
    0.9100000        -0.0000000
    0.9400000        -0.0000000
    0.9700000        -0.0000000
    1.0000000        -0.0000000
    1.0300000        -0.0000000
    1.0600000        -0.0000000
    1.0900000         0.0000000
    1.1200000         0.0000000
    1.1500000         0.0000000
    1.1800000         0.0000000
    1.2100000         0.0000000
    1.2400000         0.0000000
    1.2700000         0.0000000
    1.3000000        -0.0000000
    1.3300000        -0.0000000
    1.3600000        -0.0000000
    1.3900000        -0.0000000
    1.4200000        -0.0000000
    1.4500000        -0.0000000
    1.4800000        -0.0000000
    1.5100000         0.0000000
    1.5400000         0.0000000
    1.5700000         0.0000000
    1.6000000         0.0000000
    1.6300000         0.0000000
    1.6600000         0.0000000
    1.6900000         0.0000000
    1.7200000        -0.0000000
    1.7500000        -0.0000000
    1.7800000        -0.0000000
    1.8100000        -0.0000000
    1.8400000        -0.0000000
    1.8700000        -0.0000000
    1.9000000        -0.0000000
    1.9300000         0.0000000
    1.9600000         0.0000000
    1.9900000         0.0000000
    2.0200000         0.0000000
    2.0500000         0.0000000
    2.0800000         0.0000000
    2.1100000         0.0000000
    2.1400000         0.0000000
    2.1700000        -0.0000000
    2.2000000        -0.0000000
    2.2300000        -0.0000000
    2.2600000        -0.0000000
    2.2900000        -0.0000000
    2.3200000        -0.0000000
    2.3500000        -0.0000000
    2.3800000         0.0000000
    2.4100000         0.0000000
    2.4400000         0.0000000
    2.4700000         0.0000000
    2.5000000         0.0000000
    2.5300000         0.0000000
    2.5600000         0.0000000
    2.5900000         0.0000000
    2.6200000        -0.0000000
    2.6500000        -0.0000000
    2.6800000        -0.0000000
    2.7100000        -0.0000000
    2.7400000        -0.0000000
    2.7700000        -0.0000000
    2.8000000        -0.0000000
    2.8300000         0.0000000
    2.8600000         0.0000000
    2.8900000         0.0000000
    2.9200000         0.0000000
    2.9500000         0.0000000
    2.9800000         0.0000000
    3.0100000         0.0000000
    3.0400000         0.0000000
    3.0700000        -0.0000000
    3.1000000        -0.0000000
    3.1300000        -0.0000000
    3.1600000        -0.0000000
    3.1900000        -0.0000000
    3.2200000        -0.0000000
    3.2500000        -0.0000000
    3.2800000        -0.0000000
    3.3100000         0.0000000
    3.3400000         0.0000000
    3.3700000         0.0000000
    3.4000000         0.0000000
    3.4300000         0.0000000
    3.4600000         0.0000000
    3.4900000         0.0000000
    3.5200000         0.0000000
    3.5500000        -0.0000000
    3.5800000        -0.0000000
    3.6100000        -0.0000000
    3.6400000        -0.0000000
    3.6700000        -0.0000000
    3.7000000        -0.0000000
    3.7300000        -0.0000000
    3.7600000        -0.0000000
    3.7900000         0.0000000
    3.8200000         0.0000000
    3.8500000         0.0000000
    3.8800000         0.0000000
    3.9100000         0.0000000
    3.9400000         0.0000000
    3.9700000         0.0000000
    4.0000000         0.0000000
    4.0300000        -0.0000000
    4.0600000        -0.0000000
    4.0900000        -0.0000000
    4.1200000        -0.0000000
    4.1500000        -0.0000000
    4.1800000        -0.0000000
    4.2100000        -0.0000000
    4.2400000        -0.0000000
    4.2700000         0.0000000
    4.3000000         0.0000000
    4.3300000         0.0000000
    4.3600000         0.0000000
    4.3900000         0.0000000
    4.4200000         0.0000000
    4.4500000         0.0000000
    4.4800000        -0.0000000
    4.5100000        -0.0000000
    4.5400000        -0.0000000
    4.5700000        -0.0000000
    4.6000000        -0.0000000
    4.6300000        -0.0000000
    4.6600000        -0.0000000
    4.6900000         0.0000000
    4.7200000         0.0000000
    4.7500000         0.0000000
    4.7800000         0.0000000
    4.8100000         0.0000000
    4.8400000         0.0000000
    4.8700000         0.0000000
    4.9000000        -0.0000000
    4.9300000        -0.0000000
    4.9600000        -0.0000000
    4.9900000        -0.0000000
    5.0200000        -0.0000000
    5.0500000        -0.0000000
    5.0800000        -0.0000000
    5.1100000        -0.0000000
    5.1400000         0.0000000
    5.1700000         0.0000000
    5.2000000         0.0000000
    5.2300000         0.0000000
    5.2600000         0.0000000
    5.2900000         0.0000000
    5.3200000         0.0000000
    5.3500000         0.0000000
    5.3800000        -0.0000000
    5.4100000        -0.0000000
    5.4400000        -0.0000000
    5.4700000        -0.0000000
    5.5000000        -0.0000000
    5.5300000        -0.0000000
    5.5600000        -0.0000000
    5.5900000        -0.0000000
    5.6200000         0.0000000
    5.6500000         0.0000000
    5.6800000         0.0000000
    5.7100000         0.0000000
    5.7400000         0.0000000
    5.7700000         0.0000000
    5.8000000         0.0000000
    5.8300000        -0.0000000
    5.8600000        -0.0000000
    5.8900000        -0.0000000
    5.9200000        -0.0000000
    5.9500000        -0.0000000
    5.9800000        -0.0000000
    6.0100000        -0.0000000
    6.0400000         0.0000000
    6.0700000         0.0000000
    6.1000000         0.0000000
    6.1300000         0.0000000
    6.1600000         0.0000000
    6.1900000         0.0000000
    6.2200000         0.0000000
    6.2500000         0.0000000
    6.2800000         0.0000000
    6.3100000        -0.0000000
    6.3400000        -0.0000000
    6.3700000        -0.0000000
    6.4000000        -0.0000000
    6.4300000        -0.0000000
    6.4600000        -0.0000000
    6.4900000        -0.0000000
    6.5200000        -0.0000000
    6.5500000        -0.0000000
    6.5800000        -0.0000000
    6.6100000         0.0000000
    6.6400000         0.0000000
    6.6700000         0.0000000
    6.7000000         0.0000000
    6.7300000         0.0000000
    6.7600000         0.0000000
    6.7900000         0.0000000
    6.8200000         0.0000000
    6.8500000         0.0000000
    6.8800000         0.0000000
    6.9100000        -0.0000000
    6.9400000        -0.0000000
    6.9700000        -0.0000000
    7.0000000        -0.0000000
    7.0300000        -0.0000000
    7.0600000        -0.0000000
    7.0900000        -0.0000000
    7.1200000        -0.0000000
    7.1500000        -0.0000000
    7.1800000        -0.0000000
    7.2100000         0.0000000
    7.2400000         0.0000000
    7.2700000         0.0000000
    7.3000000         0.0000000
    7.3300000         0.0000000
    7.3600000         0.0000000
    7.3900000         0.0000000
    7.4200000         0.0000000
    7.4500000         0.0000000
    7.4800000         0.0000000
    7.5100000        -0.0000000
    7.5400000        -0.0000000
    7.5700000        -0.0000000
    7.6000000        -0.0000000
    7.6300000        -0.0000000
    7.6600000        -0.0000000
    7.6900000        -0.0000000
    7.7200000        -0.0000000
    7.7500000        -0.0000000
    7.7800000        -0.0000000
    7.8100000         0.0000000
    7.8400000         0.0000000
    7.8700000         0.0000000
    7.9000000         0.0000000
    7.9300000         0.0000000
    7.9600000         0.0000000
    7.9900000         0.0000000
    8.0200000         0.0000000
    8.0500000         0.0000000
    8.0800000         0.0000000