  -20.0000000       0.00000000    
  -19.9850006       0.00000000    
  -19.9699993       0.00000000    
  -19.9549999       0.00000000    
  -19.9400005       0.00000000    
  -19.9249992       0.00000000    
  -19.9099998       0.00000000    
  -19.8950005       0.00000000    
  -19.8799992       0.00000000    
  -19.8649998       0.00000000    
  -19.8500004       0.00000000    
  -19.8349991       0.00000000    
  -19.8199997       0.00000000    
  -19.8050003       0.00000000    
  -19.7900009       0.00000000    
  -19.7749996       0.00000000    
  -19.7600002       0.00000000    
  -19.7450008       0.00000000    
  -19.7299995       0.00000000    
  -19.7150002       0.00000000    
  -19.7000008       0.00000000    
  -19.6849995       0.00000000    
  -19.6700001       0.00000000    
  -19.6550007       0.00000000    
  -19.6399994       0.00000000    
  -19.6250000       0.00000000    
  -19.6100006       0.00000000    
  -19.5949993       0.00000000    
  -19.5799999       0.00000000    
  -19.5650005       0.00000000    
  -19.5499992       0.00000000    
  -19.5349998       0.00000000    
  -19.5200005       0.00000000    
  -19.5049992       0.00000000    
  -19.4899998       0.00000000    
  -19.4750004       0.00000000    
  -19.4599991       0.00000000    
  -19.4449997       0.00000000    
  -19.4300003       0.00000000    
  -19.4150009       0.00000000    
  -19.3999996       0.00000000    
  -19.3850002       0.00000000    
  -19.3700008       0.00000000    
  -19.3549995       0.00000000    
  -19.3400002       0.00000000    
  -19.3250008       0.00000000    
  -19.3099995       0.00000000    
  -19.2950001       0.00000000    
  -19.2800007       0.00000000    
  -19.2649994       0.00000000    
  -19.2500000       0.00000000    
  -19.2350006       0.00000000    
  -19.2199993       0.00000000    
  -19.2049999       0.00000000    
  -19.1900005       0.00000000    
  -19.1749992       0.00000000    
  -19.1599998       0.00000000    
  -19.1450005       0.00000000    
  -19.1299992       0.00000000    
  -19.1149998       0.00000000    
  -19.1000004       0.00000000    
  -19.0849991       0.00000000    
  -19.0699997       0.00000000    
  -19.0550003       0.00000000    
  -19.0400009       0.00000000    
  -19.0249996       0.00000000    
  -19.0100002       0.00000000    
  -18.9950008       0.00000000    
  -18.9799995       0.00000000    
  -18.9650002       0.00000000    
  -18.9500008       0.00000000    
  -18.9349995       0.00000000    
  -18.9200001       0.00000000    
  -18.9050007       0.00000000    
  -18.8899994       0.00000000    
  -18.8750000       0.00000000    
  -18.8600006       0.00000000    
  -18.8449993       0.00000000    
  -18.8299999       0.00000000    
  -18.8150005       0.00000000    
  -18.7999992       0.00000000    
  -18.7849998       0.00000000    
  -18.7700005       0.00000000    
  -18.7549992       0.00000000    
  -18.7399998       0.00000000    
  -18.7250004       0.00000000    
  -18.7099991       0.00000000    
  -18.6949997       0.00000000    
  -18.6800003       0.00000000    
  -18.6650009       0.00000000    
  -18.6499996       0.00000000    
  -18.6350002       0.00000000    
  -18.6200008       0.00000000    
  -18.6049995       0.00000000    
  -18.5900002       0.00000000    
  -18.5750008       0.00000000    
  -18.5599995       0.00000000    
  -18.5450001       0.00000000    
  -18.5300007       0.00000000    
  -18.5149994       0.00000000    
  -18.5000000       0.00000000    
  -18.4850006       0.00000000    
  -18.4699993       0.00000000    
  -18.4549999       0.00000000    
  -18.4400005       0.00000000    
  -18.4249992       0.00000000    
  -18.4099998       0.00000000    
  -18.3950005       0.00000000    
  -18.3799992       0.00000000    
  -18.3649998       0.00000000    
  -18.3500004       0.00000000    
  -18.3349991       0.00000000    
  -18.3199997       0.00000000    
  -18.3050003       0.00000000    
  -18.2900009       0.00000000    
  -18.2749996       0.00000000    
  -18.2600002       0.00000000    
  -18.2450008       0.00000000    
  -18.2299995       0.00000000    
  -18.2150002       0.00000000    
  -18.2000008       0.00000000    
  -18.1849995       0.00000000    
  -18.1700001       0.00000000    
  -18.1550007       0.00000000    
  -18.1399994       0.00000000    
  -18.1250000       0.00000000    
  -18.1100006       0.00000000    
  -18.0949993       0.00000000    
  -18.0799999       0.00000000    
  -18.0650005       0.00000000    
  -18.0499992       0.00000000    
  -18.0349998       0.00000000    
  -18.0200005       0.00000000    
  -18.0049992       0.00000000    
  -17.9899998       0.00000000    
  -17.9750004       0.00000000    
  -17.9599991       0.00000000    
  -17.9449997       0.00000000    
  -17.9300003       0.00000000    
  -17.9150009       0.00000000    
  -17.8999996       0.00000000    
  -17.8850002       0.00000000    
  -17.8700008       0.00000000    
  -17.8549995       0.00000000    
  -17.8400002       0.00000000    
  -17.8250008       0.00000000    
  -17.8099995       0.00000000    
  -17.7950001       0.00000000    
  -17.7800007       0.00000000    
  -17.7649994       0.00000000    
  -17.7500000       0.00000000    
  -17.7350006       0.00000000    
  -17.7199993       0.00000000    
  -17.7049999       0.00000000    
  -17.6900005       0.00000000    
  -17.6749992       0.00000000    
  -17.6599998       0.00000000    
  -17.6450005       0.00000000    
  -17.6299992       0.00000000    
  -17.6149998       0.00000000    
  -17.6000004       0.00000000    
  -17.5849991       0.00000000    
  -17.5699997       0.00000000    
  -17.5550003       0.00000000    
  -17.5400009       0.00000000    
  -17.5249996       0.00000000    
  -17.5100002       0.00000000    
  -17.4950008       0.00000000    
  -17.4799995       0.00000000    
  -17.4650002       0.00000000    
  -17.4500008       0.00000000    
  -17.4349995       0.00000000    
  -17.4200001       0.00000000    
  -17.4050007       0.00000000    
  -17.3899994       0.00000000    
  -17.3750000       0.00000000    
  -17.3600006       0.00000000    
  -17.3449993       0.00000000    
  -17.3299999       0.00000000    
  -17.3150005       0.00000000    
  -17.2999992       0.00000000    
  -17.2849998       0.00000000    
  -17.2700005       0.00000000    
  -17.2549992       0.00000000    
  -17.2399998       0.00000000    
  -17.2250004       0.00000000    
  -17.2099991       0.00000000    
  -17.1949997       0.00000000    
  -17.1800003       0.00000000    
  -17.1650009       0.00000000    
  -17.1499996       0.00000000    
  -17.1350002       0.00000000    
  -17.1200008       0.00000000    
  -17.1049995       0.00000000    
  -17.0900002       0.00000000    
  -17.0750008       0.00000000    
  -17.0599995       0.00000000    
  -17.0450001       0.00000000    
  -17.0300007       0.00000000    
  -17.0149994       0.00000000    
  -17.0000000       0.00000000    
  -16.9850006       0.00000000    
  -16.9699993       0.00000000    
  -16.9549999       0.00000000    
  -16.9400005       0.00000000    
  -16.9249992       0.00000000    
  -16.9099998       0.00000000    
  -16.8950005       0.00000000    
  -16.8799992       0.00000000    
  -16.8649998       0.00000000    
  -16.8500004       0.00000000    
  -16.8349991       0.00000000    
  -16.8199997       0.00000000    
  -16.8050003       0.00000000    
  -16.7900009       0.00000000    
  -16.7749996       0.00000000    
  -16.7600002       0.00000000    
  -16.7450008       0.00000000    
  -16.7299995       0.00000000    
  -16.7150002       0.00000000    
  -16.7000008       0.00000000    
  -16.6849995       0.00000000    
  -16.6700001       0.00000000    
  -16.6550007       0.00000000    
  -16.6399994       0.00000000    
  -16.6250000       0.00000000    
  -16.6100006       0.00000000    
  -16.5949993       0.00000000    
  -16.5799999       0.00000000    
  -16.5650005       0.00000000    
  -16.5499992       0.00000000    
  -16.5349998       0.00000000    
  -16.5200005       0.00000000    
  -16.5049992       0.00000000    
  -16.4899998       0.00000000    
  -16.4750004       0.00000000    
  -16.4599991       0.00000000    
  -16.4449997       0.00000000    
  -16.4300003       0.00000000    
  -16.4150009       0.00000000    
  -16.3999996       0.00000000    
  -16.3850002       0.00000000    
  -16.3700008       0.00000000    
  -16.3549995       0.00000000    
  -16.3400002       0.00000000    
  -16.3250008       0.00000000    
  -16.3099995       0.00000000    
  -16.2950001       0.00000000    
  -16.2800007       0.00000000    
  -16.2649994       0.00000000    
  -16.2500000       0.00000000    
  -16.2350006       0.00000000    
  -16.2199993       0.00000000    
  -16.2049999       0.00000000    
  -16.1900005       0.00000000    
  -16.1749992       0.00000000    
  -16.1599998       0.00000000    
  -16.1450005       0.00000000    
  -16.1299992       0.00000000    
  -16.1149998       0.00000000    
  -16.1000004       0.00000000    
  -16.0849991       0.00000000    
  -16.0699997       0.00000000    
  -16.0550003       0.00000000    
  -16.0400009       0.00000000    
  -16.0249996       0.00000000    
  -16.0100002       0.00000000    
  -15.9949999       0.00000000    
  -15.9799995       0.00000000    
  -15.9650002       0.00000000    
  -15.9499998       0.00000000    
  -15.9350004       0.00000000    
  -15.9200001       0.00000000    
  -15.9049997       0.00000000    
  -15.8900003       0.00000000    
  -15.8750000       0.00000000    
  -15.8599997       0.00000000    
  -15.8450003       0.00000000    
  -15.8299999       0.00000000    
  -15.8149996       0.00000000    
  -15.8000002       0.00000000    
  -15.7849998       0.00000000    
  -15.7700005       0.00000000    
  -15.7550001       0.00000000    
  -15.7399998       0.00000000    
  -15.7250004       0.00000000    
  -15.7100000       0.00000000    
  -15.6949997       0.00000000    
  -15.6800003       0.00000000    
  -15.6650000       0.00000000    
  -15.6499996       0.00000000    
  -15.6350002       0.00000000    
  -15.6199999       0.00000000    
  -15.6049995       0.00000000    
  -15.5900002       0.00000000    
  -15.5749998       0.00000000    
  -15.5600004       0.00000000    
  -15.5450001       0.00000000    
  -15.5299997       0.00000000    
  -15.5150003       0.00000000    
  -15.5000000       0.00000000    
  -15.4849997       0.00000000    
  -15.4700003       0.00000000    
  -15.4549999       0.00000000    
  -15.4399996       0.00000000    
  -15.4250002       0.00000000    
  -15.4099998       0.00000000    
  -15.3950005       0.00000000    
  -15.3800001       0.00000000    
  -15.3649998       0.00000000    
  -15.3500004       0.00000000    
  -15.3350000       0.00000000    
  -15.3199997       0.00000000    
  -15.3050003       0.00000000    
  -15.2900000       0.00000000    
  -15.2749996       0.00000000    
  -15.2600002       0.00000000    
  -15.2449999       0.00000000    
  -15.2299995       0.00000000    
  -15.2150002       0.00000000    
  -15.1999998       0.00000000    
  -15.1850004       0.00000000    
  -15.1700001       0.00000000    
  -15.1549997       0.00000000    
  -15.1400003       0.00000000    
  -15.1250000       0.00000000    
  -15.1099997       0.00000000    
  -15.0950003       0.00000000    
  -15.0799999       0.00000000    
  -15.0649996       0.00000000    
  -15.0500002       0.00000000    
  -15.0349998       0.00000000    
  -15.0200005       0.00000000    
  -15.0050001       0.00000000    
  -14.9899998       0.00000000    
  -14.9750004       0.00000000    
  -14.9600000       0.00000000    
  -14.9449997       0.00000000    
  -14.9300003       0.00000000    
  -14.9150000       0.00000000    
  -14.8999996       0.00000000    
  -14.8850002       0.00000000    
  -14.8699999       0.00000000    
  -14.8549995       0.00000000    
  -14.8400002       0.00000000    
  -14.8249998       0.00000000    
  -14.8100004       0.00000000    
  -14.7950001       0.00000000    
  -14.7799997       0.00000000    
  -14.7650003       0.00000000    
  -14.7500000       0.00000000    
  -14.7349997       0.00000000    
  -14.7200003       0.00000000    
  -14.7049999       0.00000000    
  -14.6899996       0.00000000    
  -14.6750002       0.00000000    
  -14.6599998       0.00000000    
  -14.6450005       0.00000000    
  -14.6300001       0.00000000    
  -14.6149998       0.00000000    
  -14.6000004       0.00000000    
  -14.5850000       0.00000000    
  -14.5699997       0.00000000    
  -14.5550003       0.00000000    
  -14.5400000       0.00000000    
  -14.5249996       0.00000000    
  -14.5100002       0.00000000    
  -14.4949999       0.00000000    
  -14.4799995       0.00000000    
  -14.4650002       0.00000000    
  -14.4499998       0.00000000    
  -14.4350004       0.00000000    
  -14.4200001       0.00000000    
  -14.4049997       0.00000000    
  -14.3900003       0.00000000    
  -14.3750000       0.00000000    
  -14.3599997       0.00000000    
  -14.3450003       0.00000000    
  -14.3299999       0.00000000    
  -14.3149996       0.00000000    
  -14.3000002       0.00000000    
  -14.2849998       0.00000000    
  -14.2700005       0.00000000    
  -14.2550001       0.00000000    
  -14.2399998       0.00000000    
  -14.2250004       0.00000000    
  -14.2100000       0.00000000    
  -14.1949997       0.00000000    
  -14.1800003       0.00000000    
  -14.1650000       0.00000000    
  -14.1499996       0.00000000    
  -14.1350002       0.00000000    
  -14.1199999       0.00000000    
  -14.1049995       0.00000000    
  -14.0900002       0.00000000    
  -14.0749998       0.00000000    
  -14.0600004       0.00000000    
  -14.0450001       0.00000000    
  -14.0299997       0.00000000    
  -14.0150003       0.00000000    
  -14.0000000       0.00000000    
  -13.9849997       0.00000000    
  -13.9700003       0.00000000    
  -13.9549999       0.00000000    
  -13.9399996       0.00000000    
  -13.9250002       0.00000000    
  -13.9099998       0.00000000    
  -13.8950005       0.00000000    
  -13.8800001       0.00000000    
  -13.8649998       0.00000000    
  -13.8500004       0.00000000    
  -13.8350000       0.00000000    
  -13.8199997       0.00000000    
  -13.8050003       0.00000000    
  -13.7900000       0.00000000    
  -13.7749996       0.00000000    
  -13.7600002       0.00000000    
  -13.7449999       0.00000000    
  -13.7299995       0.00000000    
  -13.7150002       0.00000000    
  -13.6999998       0.00000000    
  -13.6850004       0.00000000    
  -13.6700001       0.00000000    
  -13.6549997       0.00000000    
  -13.6400003       0.00000000    
  -13.6250000       0.00000000    
  -13.6099997       0.00000000    
  -13.5950003       0.00000000    
  -13.5799999       0.00000000    
  -13.5649996       0.00000000    
  -13.5500002       0.00000000    
  -13.5349998       0.00000000    
  -13.5200005       0.00000000    
  -13.5050001       0.00000000    
  -13.4899998       0.00000000    
  -13.4750004       0.00000000    
  -13.4600000       0.00000000    
  -13.4449997       0.00000000    
  -13.4300003       0.00000000    
  -13.4150000       0.00000000    
  -13.3999996       0.00000000    
  -13.3850002       0.00000000    
  -13.3699999       0.00000000    
  -13.3549995       0.00000000    
  -13.3400002       0.00000000    
  -13.3249998       0.00000000    
  -13.3100004       0.00000000    
  -13.2950001       0.00000000    
  -13.2799997       0.00000000    
  -13.2650003       0.00000000    
  -13.2500000       0.00000000    
  -13.2349997       0.00000000    
  -13.2200003       0.00000000    
  -13.2049999       0.00000000    
  -13.1899996       0.00000000    
  -13.1750002       0.00000000    
  -13.1599998       0.00000000    
  -13.1450005       0.00000000    
  -13.1300001       0.00000000    
  -13.1149998       0.00000000    
  -13.1000004       0.00000000    
  -13.0850000       0.00000000    
  -13.0699997       0.00000000    
  -13.0550003       0.00000000    
  -13.0400000       0.00000000    
  -13.0249996       0.00000000    
  -13.0100002       0.00000000    
  -12.9949999       0.00000000    
  -12.9799995       0.00000000    
  -12.9650002       0.00000000    
  -12.9499998       0.00000000    
  -12.9350004       0.00000000    
  -12.9200001       0.00000000    
  -12.9049997       0.00000000    
  -12.8900003       0.00000000    
  -12.8750000       0.00000000    
  -12.8599997       0.00000000    
  -12.8450003       0.00000000    
  -12.8299999       0.00000000    
  -12.8149996       0.00000000    
  -12.8000002       0.00000000    
  -12.7849998       0.00000000    
  -12.7700005       0.00000000    
  -12.7550001       0.00000000    
  -12.7399998       0.00000000    
  -12.7250004       0.00000000    
  -12.7100000       0.00000000    
  -12.6949997       0.00000000    
  -12.6800003       0.00000000    
  -12.6650000       0.00000000    
  -12.6499996       0.00000000    
  -12.6350002       0.00000000    
  -12.6199999       0.00000000    
  -12.6049995       0.00000000    
  -12.5900002       0.00000000    
  -12.5749998       0.00000000    
  -12.5600004       0.00000000    
  -12.5450001       0.00000000    
  -12.5299997       0.00000000    
  -12.5150003       0.00000000    
  -12.5000000       0.00000000    
  -12.4849997       0.00000000    
  -12.4700003       0.00000000    
  -12.4549999       0.00000000    
  -12.4399996       0.00000000    
  -12.4250002       0.00000000    
  -12.4099998       0.00000000    
  -12.3950005       0.00000000    
  -12.3800001       0.00000000    
  -12.3649998       0.00000000    
  -12.3500004       0.00000000    
  -12.3350000       0.00000000    
  -12.3199997       0.00000000    
  -12.3050003       0.00000000    
  -12.2900000       0.00000000    
  -12.2749996       0.00000000    
  -12.2600002       0.00000000    
  -12.2449999       0.00000000    
  -12.2299995       0.00000000    
  -12.2150002       0.00000000    
  -12.1999998       0.00000000    
  -12.1850004       0.00000000    
  -12.1700001       0.00000000    
  -12.1549997       0.00000000    
  -12.1400003       0.00000000    
  -12.1250000       0.00000000    
  -12.1099997       0.00000000    
  -12.0950003       0.00000000    
  -12.0799999       0.00000000    
  -12.0649996       0.00000000    
  -12.0500002       0.00000000    
  -12.0349998       0.00000000    
  -12.0200005       0.00000000    
  -12.0050001       0.00000000    
  -11.9899998       0.00000000    
  -11.9750004       0.00000000    
  -11.9600000       0.00000000    
  -11.9449997       0.00000000    
  -11.9300003       0.00000000    
  -11.9150000       0.00000000    
  -11.8999996       0.00000000    
  -11.8850002       0.00000000    
  -11.8699999       0.00000000    
  -11.8549995       0.00000000    
  -11.8400002       0.00000000    
  -11.8249998       0.00000000    
  -11.8100004       0.00000000    
  -11.7950001       0.00000000    
  -11.7799997       0.00000000    
  -11.7650003       0.00000000    
  -11.7500000       0.00000000    
  -11.7349997       0.00000000    
  -11.7200003       0.00000000    
  -11.7049999       0.00000000    
  -11.6899996       0.00000000    
  -11.6750002       0.00000000    
  -11.6599998       0.00000000    
  -11.6450005       0.00000000    
  -11.6300001       0.00000000    
  -11.6149998       0.00000000    
  -11.6000004       0.00000000    
  -11.5850000       0.00000000    
  -11.5699997       0.00000000    
  -11.5550003       0.00000000    
  -11.5400000       0.00000000    
  -11.5249996       0.00000000    
  -11.5100002       0.00000000    
  -11.4949999       0.00000000    
  -11.4799995       0.00000000    
  -11.4650002       0.00000000    
  -11.4499998       0.00000000    
  -11.4350004       0.00000000    
  -11.4200001       0.00000000    
  -11.4049997       0.00000000    
  -11.3900003       0.00000000    
  -11.3750000       0.00000000    
  -11.3599997       0.00000000    
  -11.3450003       0.00000000    
  -11.3299999       0.00000000    
  -11.3149996       0.00000000    
  -11.3000002       0.00000000    
  -11.2849998       0.00000000    
  -11.2700005       0.00000000    
  -11.2550001       0.00000000    
  -11.2399998       0.00000000    
  -11.2250004       0.00000000    
  -11.2100000       0.00000000    
  -11.1949997       0.00000000    
  -11.1800003       0.00000000    
  -11.1650000       0.00000000    
  -11.1499996       0.00000000    
  -11.1350002       0.00000000    
  -11.1199999       0.00000000    
  -11.1049995       0.00000000    
  -11.0900002       0.00000000    
  -11.0749998       0.00000000    
  -11.0600004       0.00000000    
  -11.0450001       0.00000000    
  -11.0299997       0.00000000    
  -11.0150003       0.00000000    
  -11.0000000       0.00000000    
  -10.9849997       0.00000000    
  -10.9700003       0.00000000    
  -10.9549999       0.00000000    
  -10.9399996       0.00000000    
  -10.9250002       0.00000000    
  -10.9099998       0.00000000    
  -10.8950005       0.00000000    
  -10.8800001       0.00000000    
  -10.8649998       0.00000000    
  -10.8500004       0.00000000    
  -10.8350000       0.00000000    
  -10.8199997       0.00000000    
  -10.8050003       0.00000000    
  -10.7900000       0.00000000    
  -10.7749996       0.00000000    
  -10.7600002       0.00000000    
  -10.7449999       0.00000000    
  -10.7299995       0.00000000    
  -10.7150002       0.00000000    
  -10.6999998       0.00000000    
  -10.6850004       0.00000000    
  -10.6700001       0.00000000    
  -10.6549997       0.00000000    
  -10.6400003       0.00000000    
  -10.6250000       0.00000000    
  -10.6099997       0.00000000    
  -10.5950003       0.00000000    
  -10.5799999       0.00000000    
  -10.5649996       0.00000000    
  -10.5500002       0.00000000    
  -10.5349998       0.00000000    
  -10.5200005       0.00000000    
  -10.5050001       0.00000000    
  -10.4899998       0.00000000    
  -10.4750004       0.00000000    
  -10.4600000       0.00000000    
  -10.4449997       0.00000000    
  -10.4300003       0.00000000    
  -10.4150000       0.00000000    
  -10.3999996       0.00000000    
  -10.3850002       0.00000000    
  -10.3699999       0.00000000    
  -10.3549995       0.00000000    
  -10.3400002       0.00000000    
  -10.3249998       0.00000000    
  -10.3100004       0.00000000    
  -10.2950001       0.00000000    
  -10.2799997       0.00000000    
  -10.2650003       0.00000000    
  -10.2500000       0.00000000    
  -10.2349997       0.00000000    
  -10.2200003       0.00000000    
  -10.2049999       0.00000000    
  -10.1899996       0.00000000    
  -10.1750002       0.00000000    
  -10.1599998       0.00000000    
  -10.1450005       0.00000000    
  -10.1300001       0.00000000    
  -10.1149998       0.00000000    
  -10.1000004       0.00000000    
  -10.0850000       0.00000000    
  -10.0699997       0.00000000    
  -10.0550003       0.00000000    
  -10.0400000       0.00000000    
  -10.0249996       0.00000000    
  -10.0100002       0.00000000    
  -9.99499989       0.00000000    
  -9.97999954       0.00000000    
  -9.96500015       0.00000000    
  -9.94999981       0.00000000    
  -9.93500042       0.00000000    
  -9.92000008       0.00000000    
  -9.90499973       0.00000000    
  -9.89000034       0.00000000    
  -9.87500000       0.00000000    
  -9.85999966       0.00000000    
  -9.84500027       0.00000000    
  -9.82999992       0.00000000    
  -9.81499958       0.00000000    
  -9.80000019       0.00000000    
  -9.78499985       0.00000000    
  -9.77000046       0.00000000    
  -9.75500011       0.00000000    
  -9.73999977       0.00000000    
  -9.72500038       0.00000000    
  -9.71000004       0.00000000    
  -9.69499969       0.00000000    
  -9.68000031       0.00000000    
  -9.66499996       0.00000000    
  -9.64999962       0.00000000    
  -9.63500023       0.00000000    
  -9.61999989       0.00000000    
  -9.60499954       0.00000000    
  -9.59000015       0.00000000    
  -9.57499981       0.00000000    
  -9.56000042       0.00000000    
  -9.54500008       0.00000000    
  -9.52999973       0.00000000    
  -9.51500034       0.00000000    
  -9.50000000       0.00000000    
  -9.48499966       0.00000000    
  -9.47000027       0.00000000    
  -9.45499992       0.00000000    
  -9.43999958       0.00000000    
  -9.42500019       0.00000000    
  -9.40999985       0.00000000    
  -9.39500046       0.00000000    
  -9.38000011       0.00000000    
  -9.36499977       0.00000000    
  -9.35000038       0.00000000    
  -9.33500004       0.00000000    
  -9.31999969       0.00000000    
  -9.30500031       0.00000000    
  -9.28999996       0.00000000    
  -9.27499962       0.00000000    
  -9.26000023       0.00000000    
  -9.24499989       0.00000000    
  -9.22999954       0.00000000    
  -9.21500015       0.00000000    
  -9.19999981       0.00000000    
  -9.18500042       0.00000000    
  -9.17000008       0.00000000    
  -9.15499973       0.00000000    
  -9.14000034       0.00000000    
  -9.12500000       0.00000000    
  -9.10999966       0.00000000    
  -9.09500027       0.00000000    
  -9.07999992       0.00000000    
  -9.06499958       0.00000000    
  -9.05000019       0.00000000    
  -9.03499985       0.00000000    
  -9.02000046       0.00000000    
  -9.00500011       0.00000000    
  -8.98999977       0.00000000    
  -8.97500038       0.00000000    
  -8.96000004       0.00000000    
  -8.94499969       0.00000000    
  -8.93000031       0.00000000    
  -8.91499996       0.00000000    
  -8.89999962       0.00000000    
  -8.88500023       0.00000000    
  -8.86999989       0.00000000    
  -8.85499954       0.00000000    
  -8.84000015       0.00000000    
  -8.82499981       0.00000000    
  -8.81000042       0.00000000    
  -8.79500008       0.00000000    
  -8.77999973       0.00000000    
  -8.76500034       0.00000000    
  -8.75000000       0.00000000    
  -8.73499966       0.00000000    
  -8.72000027       0.00000000    
  -8.70499992       0.00000000    
  -8.68999958       0.00000000    
  -8.67500019       0.00000000    
  -8.65999985       0.00000000    
  -8.64500046       0.00000000    
  -8.63000011       0.00000000    
  -8.61499977       0.00000000    
  -8.60000038       0.00000000    
  -8.58500004       0.00000000    
  -8.56999969       0.00000000    
  -8.55500031       0.00000000    
  -8.53999996       0.00000000    
  -8.52499962       0.00000000    
  -8.51000023       0.00000000    
  -8.49499989       0.00000000    
  -8.47999954       0.00000000    
  -8.46500015       0.00000000    
  -8.44999981       0.00000000    
  -8.43500042       0.00000000    
  -8.42000008       0.00000000    
  -8.40499973       0.00000000    
  -8.39000034       0.00000000    
  -8.37500000       0.00000000    
  -8.35999966       0.00000000    
  -8.34500027       0.00000000    
  -8.32999992       0.00000000    
  -8.31499958       0.00000000    
  -8.30000019       0.00000000    
  -8.28499985       0.00000000    
  -8.27000046       0.00000000    
  -8.25500011       0.00000000    
  -8.23999977       0.00000000    
  -8.22500038       0.00000000    
  -8.21000004       0.00000000    
  -8.19499969       0.00000000    
  -8.18000031       0.00000000    
  -8.16499996       0.00000000    
  -8.14999962       0.00000000    
  -8.13500023       0.00000000    
  -8.11999989       0.00000000    
  -8.10499954       0.00000000    
  -8.09000015       0.00000000    
  -8.07499981       0.00000000    
  -8.06000042       0.00000000    
  -8.04500008       0.00000000    
  -8.02999973       0.00000000    
  -8.01500034       0.00000000    
  -8.00000000       0.00000000    
  -7.98500013       0.00000000    
  -7.96999979       0.00000000    
  -7.95499992       0.00000000    
  -7.94000006       0.00000000    
  -7.92500019       0.00000000    
  -7.90999985       0.00000000    
  -7.89499998       0.00000000    
  -7.88000011       0.00000000    
  -7.86499977       0.00000000    
  -7.84999990       0.00000000    
  -7.83500004       0.00000000    
  -7.82000017       0.00000000    
  -7.80499983       0.00000000    
  -7.78999996       0.00000000    
  -7.77500010       0.00000000    
  -7.76000023       0.00000000    
  -7.74499989       0.00000000    
  -7.73000002       0.00000000    
  -7.71500015       0.00000000    
  -7.69999981       0.00000000    
  -7.68499994       0.00000000    
  -7.67000008       0.00000000    
  -7.65500021       0.00000000    
  -7.63999987       0.00000000    
  -7.62500000       0.00000000    
  -7.61000013       0.00000000    
  -7.59499979       0.00000000    
  -7.57999992       0.00000000    
  -7.56500006       0.00000000    
  -7.55000019       0.00000000    
  -7.53499985       0.00000000    
  -7.51999998       0.00000000    
  -7.50500011       0.00000000    
  -7.48999977       0.00000000    
  -7.47499990       0.00000000    
  -7.46000004       0.00000000    
  -7.44500017       0.00000000    
  -7.42999983       0.00000000    
  -7.41499996       0.00000000    
  -7.40000010       0.00000000    
  -7.38500023       0.00000000    
  -7.36999989       0.00000000    
  -7.35500002       0.00000000    
  -7.34000015       0.00000000    
  -7.32499981       0.00000000    
  -7.30999994       0.00000000    
  -7.29500008       0.00000000    
  -7.28000021       0.00000000    
  -7.26499987       0.00000000    
  -7.25000000       0.00000000    
  -7.23500013       0.00000000    
  -7.21999979       0.00000000    
  -7.20499992       0.00000000    
  -7.19000006       0.00000000    
  -7.17500019       0.00000000    
  -7.15999985       0.00000000    