  -7.75000006E-02   1.00000002E-24
  -6.97500035E-02   1.00000002E-24
  -6.19999990E-02   1.00000002E-24
  -5.42499982E-02   1.00000002E-24
  -4.65000011E-02   1.00000002E-24
  -3.87500003E-02   1.00000002E-24
  -3.09999995E-02   1.00000002E-24
  -2.32500006E-02   1.00000002E-24
  -1.54999997E-02   1.00000002E-24
  -7.74999987E-03   1.00000002E-24
   0.00000000       1.00000002E-24
   7.74999987E-03   1.00000002E-24
   1.54999997E-02   1.00000002E-24
   2.32500006E-02   1.00000002E-24
   3.09999995E-02   1.00000002E-24
   3.87500003E-02   1.00000002E-24
   4.65000011E-02   1.00000002E-24
   5.42499982E-02   1.00000002E-24
   6.19999990E-02   1.00000002E-24
   6.97500035E-02   1.00000002E-24
   7.75000006E-02   1.00000002E-24
   8.52499977E-02   1.00000002E-24
   9.30000022E-02   1.00000002E-24
  0.100749999       1.00000002E-24
  0.108499996       1.00000002E-24
  0.116250001       1.00000002E-24
  0.123999998       1.00000002E-24
  0.131750003       1.00000002E-24
  0.139500007       1.00000012E-24
  0.147249997       1.00000012E-24
  0.155000001       1.00000012E-24
  0.162750006       9.99999921E-25
  0.170499995       9.99999527E-25
  0.178250000       9.99998836E-25
  0.186000004       9.99997160E-25
  0.193749994       9.99993610E-25
  0.201499999       9.99986609E-25
  0.209250003       9.99973198E-25
  0.216999993       9.99948349E-25
  0.224749997       9.99903384E-25
  0.232500002       9.99824301E-25
  0.240250006       9.99688913E-25
  0.247999996       9.99461721E-25
  0.255750000       9.99088589E-25
  0.263500005       9.98487576E-25
  0.271250010       9.97536801E-25
  0.279000014       9.96058673E-25
  0.286749989       9.93797601E-25
  0.294499993       9.90392384E-25
  0.302249998       9.85340026E-25
  0.310000002       9.77949878E-25
  0.317750007       9.67288620E-25
  0.325500011       9.52111627E-25
  0.333249986       9.30785167E-25
  0.340999991       9.01194106E-25
  0.348749995       8.60642613E-25
  0.356500000       8.05747311E-25
  0.364250004       7.32330147E-25
  0.372000009       6.35322048E-25
  0.379750013       5.08689904E-25
  0.387499988       3.45406026E-25
  0.395249993       1.37486919E-25
  0.402999997      -1.23864252E-25
  0.410750002      -4.47968125E-25
  0.418500006      -8.44177410E-25
  0.426250011      -1.32111482E-24
  0.433999985      -1.88556038E-24
  0.441749990      -2.54089021E-24
  0.449499995      -3.28495466E-24
  0.457249999      -4.10726978E-24
  0.465000004      -4.98537255E-24
  0.472750008      -5.88018891E-24
  0.480500013      -6.73023939E-24
  0.488249987      -7.44450876E-24
  0.495999992      -7.89380133E-24
  0.503750026      -7.90040489E-24
  0.511500001      -7.22591856E-24
  0.519249976      -5.55710304E-24
  0.527000010      -2.48966829E-24
  0.534749985       2.48999862E-24
  0.542500019       1.00251560E-23
  0.550249994       2.09108519E-23
  0.558000028       3.61176715E-23
  0.565750003       5.68165960E-23
  0.573499978       8.44042735E-23
  0.581250012       1.20528013E-22
  0.588999987       1.67109164E-22
  0.596750021       2.26363750E-22
  0.604499996       3.00818361E-22
  0.612249970       3.93319635E-22
  0.620000005       5.07034553E-22
  0.627749979       6.45439278E-22
  0.635500014       8.12292927E-22
  0.643249989       1.01159352E-21
  0.651000023       1.24751155E-21
  0.658749998       1.52429828E-21
  0.666499972       1.84616292E-21
  0.674250007       2.21711687E-21
  0.681999981       2.64077754E-21
  0.689750016       3.12013173E-21
  0.697499990       3.65724943E-21
  0.705250025       4.25295195E-21
  0.713000000       4.90642302E-21
  0.720749974       5.61477073E-21
  0.728500009       6.37253320E-21
  0.736249983       7.17113327E-21
  0.744000018       7.99828238E-21
  0.751749992       8.83734483E-21
  0.759500027       9.66666448E-21
  0.767250001       1.04588676E-20
  0.774999976       1.11801610E-20
  0.782750010       1.17896348E-20
  0.790499985       1.22385952E-20
  0.798250020       1.24699618E-20
  0.805999994       1.24177404E-20
  0.813750029       1.20066243E-20
  0.821500003       1.11517477E-20
  0.829249978       9.75863985E-21
  0.837000012       7.72342496E-21
  0.844749987       4.93330638E-21
  0.852500021       1.26739691E-21
  0.860249996      -3.40207067E-21
  0.867999971      -9.20808976E-21
  0.875750005      -1.62867323E-20
  0.883499980      -2.47744842E-20
  0.891250014      -3.48050008E-20
  0.898999989      -4.65052476E-20
  0.906750023      -5.99910348E-20
  0.914499998      -7.53618988E-20
  0.922249973      -9.26953135E-20
  0.930000007      -1.12040309E-19
  0.937749982      -1.33410481E-19
  0.945500016      -1.56776472E-19
  0.953249991      -1.82057968E-19
  0.961000025      -2.09115356E-19
  0.968750000      -2.37741091E-19
  0.976499975      -2.67651141E-19
  0.984250009      -2.98476285E-19
  0.991999984      -3.29754000E-19
  0.999750018      -3.60920718E-19
   1.00750005      -3.91305052E-19
   1.01524997      -4.20122009E-19
   1.02300000      -4.46468823E-19
   1.03075004      -4.69322479E-19
   1.03849995      -4.87539374E-19
   1.04624999      -4.99857541E-19
   1.05400002      -5.04901844E-19
   1.06175005      -5.01192249E-19
   1.06949997      -4.87155769E-19
   1.07725000      -4.61142438E-19
   1.08500004      -4.21445472E-19
   1.09274995      -3.66325878E-19
   1.10049999      -2.94041770E-19
   1.10825002      -2.02882563E-19
   1.11600006      -9.12078747E-20
   1.12374997       4.25084789E-20
   1.13150001       1.99630011E-19
   1.13925004       3.81304671E-19
   1.14699996       5.88407898E-19
   1.15474999       8.21482062E-19
   1.16250002       1.08067332E-18
   1.17025006       1.36566640E-18
   1.17799997       1.67561822E-18
   1.18575001       2.00909184E-18
   1.19350004       2.36399141E-18
   1.20124996       2.73750109E-18
   1.20899999       3.12602638E-18
   1.21675003       3.52514433E-18
   1.22449994       3.92955790E-18
   1.23224998       4.33306570E-18
   1.24000001       4.72853579E-18
   1.24775004       5.10790191E-18
   1.25549996       5.46216972E-18
   1.26324999       5.78144075E-18
   1.27100003       6.05496043E-18
   1.27874994       6.27118379E-18
   1.28649998       6.41786442E-18
   1.29425001       6.48216944E-18
   1.30200005       6.45082095E-18
   1.30974996       6.31025897E-18
   1.31750000       6.04683793E-18
   1.32525003       5.64704541E-18
   1.33299994       5.09774992E-18
   1.34074998       4.38647137E-18
   1.34850001       3.50167887E-18
   1.35625005       2.43310876E-18
   1.36399996       1.17210355E-18
   1.37175000      -2.88036232E-19
   1.37950003      -1.95168509E-18
   1.38724995      -3.82051812E-18
   1.39499998      -5.89313909E-18
   1.40275002      -8.16470526E-18
   1.41050005      -1.06265676E-17
   1.41824996      -1.32659273E-17
   1.42600000      -1.60655167E-17
   1.43375003      -1.90033149E-17
   1.44149995      -2.20523009E-17
   1.44924998      -2.51802662E-17
   1.45700002      -2.83496700E-17
   1.46475005      -3.15175798E-17
   1.47249997      -3.46356801E-17
   1.48025000      -3.76503597E-17
   1.48800004      -4.05029152E-17
   1.49574995      -4.31298192E-17
   1.50349998      -4.54631303E-17
   1.51125002      -4.74309929E-17
   1.51900005      -4.89582628E-17
   1.52674997      -4.99672610E-17
   1.53450000      -5.03786345E-17
   1.54225004      -5.01123518E-17
   1.54999995      -4.90888184E-17
   1.55774999      -4.72301072E-17
   1.56550002      -4.44612888E-17
   1.57325006      -4.07118975E-17
   1.58099997      -3.59174627E-17
   1.58875000      -3.00211307E-17
   1.59650004      -2.29753518E-17
   1.60424995      -1.47436160E-17
   1.61199999      -5.30223186E-18
   1.61975002       5.35793917E-18
   1.62750006       1.72297007E-17
   1.63524997       3.02878236E-17
   1.64300001       4.44874343E-17
   1.65075004       5.97624692E-17
   1.65849996       7.60243106E-17
   1.66624999       9.31605812E-17
   1.67400002       1.11034121E-16
   1.68175006       1.29482234E-16
   1.68949997       1.48316223E-16
   1.69725001       1.67321208E-16
   1.70500004       1.86256285E-16
   1.71274996       2.04855130E-16
   1.72049999       2.22826919E-16
   1.72825003       2.39857787E-16
   1.73599994       2.55612600E-16
   1.74374998       2.69737377E-16
   1.75150001       2.81862125E-16
   1.75925004       2.91604221E-16
   1.76699996       2.98572126E-16
   1.77474999       3.02369983E-16
   1.78250003       3.02602362E-16
   1.79024994       2.98879572E-16
   1.79799998       2.90823707E-16
   1.80575001       2.78074617E-16
   1.81350005       2.60296798E-16
   1.82124996       2.37186192E-16
   1.82900000       2.08477546E-16
   1.83675003       1.73951795E-16
   1.84449995       1.33443688E-16
   1.85224998       8.68493850E-17
   1.86000001       3.41339786E-17
   1.86775005      -2.46610896E-17
   1.87549996      -8.94108855E-17
   1.88325000      -1.59900405E-16
   1.89100003      -2.35818261E-16
   1.89874995      -3.16751279E-16
   1.90649998      -4.02179846E-16
   1.91425002      -4.91473874E-16
   1.92200005      -5.83890410E-16
   1.92974997      -6.78571964E-16
   1.93750000      -7.74546303E-16
   1.94525003      -8.70728006E-16
   1.95299995      -9.65921433E-16
   1.96074998      -1.05882475E-15
   1.96850002      -1.14803712E-15
   1.97625005      -1.23206670E-15
   1.98399997      -1.30934109E-15
   1.99175000      -1.37821938E-15
   1.99950004      -1.43700675E-15
   2.00725007      -1.48397060E-15
   2.01500010      -1.51735936E-15
   2.02274990      -1.53542266E-15
   2.03049994      -1.53643359E-15
   2.03824997      -1.51871292E-15
   2.04600000      -1.48065478E-15
   2.05375004      -1.42075346E-15
   2.06150007      -1.33763231E-15
   2.06925011      -1.23007300E-15
   2.07699990      -1.09704542E-15
   2.08474994      -9.37738212E-16
   2.09249997      -7.51589592E-16
   2.10025001      -5.38316914E-16
   2.10800004      -2.97946063E-16
   2.11575007      -3.08401950E-17
   2.12350011       2.62274488E-16
   2.13124990       5.80283902E-16
   2.13899994       9.21664808E-16
   2.14674997       1.28446681E-15
   2.15450001       1.66629687E-15
   2.16225004       2.06430992E-15
   2.17000008       2.47520201E-15
   2.17775011       2.89520965E-15
   2.18549991       3.32011674E-15
   2.19324994       3.74526375E-15
   2.20099998       4.16556700E-15
   2.20875001       4.57554196E-15
   2.21650004       4.96933690E-15
   2.22425008       5.34076974E-15
   2.23200011       5.68337508E-15
   2.23974991       5.99045968E-15
   2.24749994       6.25516340E-15
   2.25524998       6.47052704E-15
   2.26300001       6.62957145E-15
   2.27075005       6.72537638E-15
   2.27850008       6.75117362E-15
   2.28625011       6.70044058E-15
   2.29399991       6.56699985E-15
   2.30174994       6.34512593E-15
   2.30949998       6.02965062E-15
   2.31725001       5.61607620E-15
   2.32500005       5.10068375E-15
   2.33275008       4.48064547E-15
   2.34050012       3.75413727E-15
   2.34824991       2.92044022E-15
   2.35599995       1.98004561E-15
   2.36374998       9.34752103E-16
   2.37150002      -2.12248444E-16
   2.37925005      -1.45629221E-15
   2.38700008      -2.79117664E-15
   2.39475012      -4.20910365E-15
   2.40249991      -5.70064481E-15
   2.41024995      -7.25471522E-15
   2.41799998      -8.85856957E-15
   2.42575002      -1.04978197E-14
   2.43350005      -1.21564669E-14
   2.44125009      -1.38169624E-14
   2.44899988      -1.54602893E-14
   2.45674992      -1.70660639E-14
   2.46449995      -1.86126732E-14
   2.47224998      -2.00774218E-14
   2.48000002      -2.14367200E-14
   2.48775005      -2.26662883E-14
   2.49550009      -2.37413848E-14
   2.50324988      -2.46370595E-14
   2.51099992      -2.53284349E-14
   2.51874995      -2.57909996E-14
   2.52649999      -2.60009215E-14
   2.53425002      -2.59353916E-14
   2.54200006      -2.55729564E-14
   2.54975009      -2.48938900E-14
   2.55749989      -2.38805439E-14
   2.56524992      -2.25177305E-14
   2.57299995      -2.07930783E-14
   2.58074999      -1.86974070E-14
   2.58850002      -1.62250652E-14
   2.59625006      -1.33742877E-14
   2.60400009      -1.01474996E-14
   2.61174989      -6.55162070E-15
   2.61949992      -2.59831994E-15
   2.62724996       1.69574577E-15
   2.63499999       6.30875221E-15
   2.64275002       1.12135668E-14
   2.65050006       1.63776531E-14
   2.65825009       2.17630394E-14
   2.66599989       2.73263501E-14
   2.67374992       3.30188893E-14
   2.68149996       3.87868042E-14
   2.68924999       4.45713311E-14
   2.69700003       5.03090781E-14
   2.70475006       5.59324248E-14
   2.71250010       6.13699765E-14
   2.72024989       6.65470825E-14
   2.72799993       7.13864799E-14
   2.73574996       7.58089541E-14
   2.74349999       7.97341319E-14
   2.75125003       8.30812605E-14
   2.75900006       8.57701293E-14
   2.76675010       8.77220388E-14
   2.77449989       8.88607493E-14
   2.78224993       8.91135717E-14
   2.78999996       8.84124181E-14
   2.79775000       8.66949064E-14
   2.80550003       8.39055049E-14
   2.81325006       7.99966037E-14
   2.82100010       7.49296526E-14
   2.82874990       6.86762252E-14
   2.83649993       6.12190623E-14
   2.84424996       5.25530615E-14
   2.85200000       4.26862017E-14
   2.85975003       3.16403364E-14
   2.86750007       1.94519880E-14
   2.87525010       6.17293853E-15
   2.88299990      -8.12929283E-15
   2.89074993      -2.33711095E-14
   2.89849997      -3.94525924E-14
   2.90625000      -5.62575363E-14
   2.91400003      -7.36536144E-14
   2.92175007      -9.14927110E-14
   2.92950010      -1.09611478E-13
   2.93724990      -1.27832112E-13
   2.94499993      -1.45963347E-13
   2.95274997      -1.63801657E-13
   2.96050000      -1.81132602E-13
   2.96825004      -1.97732577E-13
   2.97600007      -2.13370635E-13
   2.98375010      -2.27810392E-13
   2.99149990      -2.40812524E-13
   2.99924994      -2.52137016E-13
   3.00699997      -2.61545776E-13
   3.01475000      -2.68805567E-13
   3.02250004      -2.73690684E-13
   3.03025007      -2.75986102E-13
   3.03800011      -2.75490432E-13
   3.04574990      -2.72019196E-13
   3.05349994      -2.65407840E-13
   3.06124997      -2.55514983E-13
   3.06900001      -2.42225456E-13
   3.07675004      -2.25453296E-13
   3.08450007      -2.05144658E-13
   3.09225011      -1.81280541E-13
   3.09999990      -1.53879310E-13
   3.10774994      -1.22998915E-13
   3.11549997      -8.87389527E-14
   3.12325001      -5.12422305E-14
   3.13100004      -1.06961864E-14
   3.13875008       3.26662966E-14
   3.14650011       7.85664326E-14
   3.15424991       1.26679469E-13
   3.16199994       1.76635318E-13
   3.16974998       2.28019453E-13
   3.17750001       2.80374519E-13
   3.18525004       3.33202568E-13
   3.19300008       3.85967625E-13
   3.20075011       4.38099020E-13
   3.20849991       4.88995400E-13
   3.21624994       5.38029040E-13
   3.22399998       5.84550854E-13
   3.23175001       6.27896118E-13
   3.23950005       6.67390188E-13
   3.24725008       7.02355600E-13
   3.25500011       7.32118630E-13
   3.26274991       7.56016885E-13
   3.27049994       7.73407000E-13
   3.27824998       7.83672823E-13
   3.28600001       7.86233546E-13
   3.29375005       7.80552001E-13
   3.30150008       7.66143334E-13
   3.30925012       7.42583295E-13
   3.31699991       7.09516593E-13
   3.32474995       6.66665074E-13
   3.33249998       6.13835317E-13
   3.34025002       5.50926221E-13
   3.34800005       4.77935779E-13
   3.35575008       3.94967506E-13
   3.36350012       3.02235884E-13
   3.37124991       2.00070985E-13
   3.37899995       8.89225217E-14
   3.38674998      -3.06372867E-14
   3.39450002      -1.57912257E-13
   3.40225005      -2.92081246E-13
   3.41000009      -4.32199036E-13
   3.41774988      -5.77198445E-13
   3.42549992      -7.25893575E-13
   3.43324995      -8.76984086E-13
   3.44099998      -1.02906269E-12
   3.44875002      -1.18062136E-12
   3.45650005      -1.33006139E-12
   3.46425009      -1.47570324E-12
   3.47199988      -1.61579994E-12
   3.47974992      -1.74854901E-12
   3.48749995      -1.87210880E-12
   3.49524999      -1.98461278E-12
   3.50300002      -2.08418872E-12
   3.51075006      -2.16897529E-12
   3.51850009      -2.23714320E-12
   3.52624989      -2.28691350E-12
   3.53399992      -2.31657965E-12
   3.54174995      -2.32452859E-12
   3.54949999      -2.30926172E-12
   3.55725002      -2.26941729E-12
   3.56500006      -2.20379184E-12
   3.57275009      -2.11136165E-12
   3.58049989      -1.99130317E-12
   3.58824992      -1.84301294E-12
   3.59599996      -1.66612720E-12
   3.60374999      -1.46053937E-12
   3.61150002      -1.22641556E-12
   3.61925006      -9.64210374E-13
   3.62700009      -6.74678195E-13
   3.63474989      -3.58884526E-13
   3.64249992      -1.82129651E-14
   3.65024996       3.45628501E-13
   3.65799999       7.30605897E-13
   3.66575003       1.13435953E-12
   3.67350006       1.55420718E-12
   3.68125010       1.98715198E-12
   3.68899989       2.42989201E-12
   3.69674993       2.87883411E-12
   3.70449996       3.33011201E-12
   3.71224999       3.77960553E-12
   3.72000003       4.22296790E-12
   3.72775006       4.65564956E-12
   3.73550010       5.07293383E-12
   3.74324989       5.46996823E-12
   3.75099993       5.84180404E-12
   3.75874996       6.18343614E-12
   3.76650000       6.48984555E-12
   3.77425003       6.75604668E-12
   3.78200006       6.97713588E-12
   3.78975010       7.14833748E-12
   3.79749990       7.26505965E-12
   3.80524993       7.32294433E-12
   3.81299996       7.31791884E-12
   3.82075000       7.24624961E-12
   3.82850003       7.10459816E-12
   3.83625007       6.89006794E-12
   3.84400010       6.60025506E-12
   3.85174990       6.23330164E-12
   3.85949993       5.78793567E-12
   3.86724997       5.26351922E-12
   3.87500000       4.66008438E-12
   3.88275003       3.97837058E-12
   3.89050007       3.21985516E-12
   3.89825010       2.38677936E-12
   3.90599990       1.48216888E-12
   3.91374993       5.09847210E-13
   3.92149997      -5.25555619E-13
   3.92925000      -1.61860065E-12
   3.93700004      -2.76304955E-12
   3.94475007      -3.95187398E-12
   3.95250010      -5.17727918E-12
   3.96024990      -6.43073182E-12
   3.96799994      -7.70299970E-12
   3.97574997      -8.98419446E-12
   3.98350000      -1.02638219E-11
   3.99125004      -1.15308466E-11
   3.99900007      -1.27737630E-11
   4.00675011      -1.39806621E-11
   4.01450014      -1.51393273E-11
   4.02225018      -1.62373084E-11
   4.03000021      -1.72620390E-11
   4.03774977      -1.82009165E-11
   4.04549980      -1.90414316E-11
   4.05324984      -1.97712558E-11
   4.06099987      -2.03783813E-11
   4.06874990      -2.08512183E-11
   4.07649994      -2.11787272E-11
   4.08424997      -2.13505394E-11
   4.09200001      -2.13570741E-11
   4.09975004      -2.11896611E-11
   4.10750008      -2.08406573E-11
   4.11525011      -2.03035592E-11
   4.12300014      -1.95731226E-11
   4.13075018      -1.86454584E-11
   4.13850021      -1.75181328E-11
   4.14624977      -1.61902609E-11
   4.15399981      -1.46625836E-11
   4.16174984      -1.29375443E-11
   4.16949987      -1.10193434E-11
   4.17724991      -8.91399194E-12
   4.18499994      -6.62934681E-12
   4.19274998      -4.17513073E-12
   4.20050001      -1.56293587E-12
   4.20825005       1.19377685E-12
   4.21600008       4.07970923E-12
   4.22375011       7.07775982E-12
   4.23150015       1.01690878E-11
   4.23925018       1.33331844E-11
   4.24700022       1.65479644E-11
   4.25474977       1.97898763E-11
   4.26249981       2.30340313E-11
   4.27024984       2.62543442E-11
   4.27799988       2.94236822E-11
   4.28574991       3.25140574E-11
   4.29349995       3.54967999E-11
   4.30124998       3.83427769E-11
   4.30900002       4.10226089E-11
   4.31675005       4.35068648E-11
   4.32450008       4.57663560E-11
   4.33225012       4.77723347E-11
   4.34000015       4.94967747E-11
   4.34775019       5.09126352E-11
   4.35550022       5.19940965E-11
   4.36324978       5.27168552E-11
   4.37099981       5.30583667E-11
   4.37874985       5.29981406E-11
   4.38649988       5.25179587E-11
   4.39424992       5.16021358E-11
   4.40199995       5.02377827E-11
   4.40974998       4.84150116E-11
   4.41750002       4.61271646E-11
   4.42525005       4.33709908E-11
   4.43300009       4.01468650E-11
   4.44075012       3.64589123E-11
   4.44850016       3.23151610E-11
   4.45625019       2.77276466E-11
   4.46400023       2.27125020E-11
   4.47174978       1.72900045E-11
   4.47949982       1.14846136E-11
   4.48724985       5.32494882E-12
   4.49499989      -1.15623342E-12
   4.50274992      -7.92213257E-12
   4.51049995      -1.49319983E-11
   4.51824999      -2.21412801E-11
   4.52600002      -2.95018107E-11
   4.53375006      -3.69620203E-11
   4.54150009      -4.44672042E-11
   4.54925013      -5.19597906E-11
   4.55700016      -5.93796678E-11
   4.56475019      -6.66645558E-11
   4.57250023      -7.37504155E-11
   4.58024979      -8.05718062E-11
   4.58799982      -8.70623781E-11
   4.59574986      -9.31553723E-11
   4.60349989      -9.87840920E-11
   4.61124992      -1.03882417E-10
   4.61899996      -1.08385370E-10
   4.62674999      -1.12229670E-10
   4.63450003      -1.15354268E-10
   4.64225006      -1.17700946E-10
   4.65000010      -1.19214957E-10
   4.65775013      -1.19845439E-10
   4.66550016      -1.19546206E-10
   4.67325020      -1.18276125E-10
   4.68100023      -1.15999751E-10
   4.68874979      -1.12687873E-10
   4.69649982      -1.08317959E-10
   4.70424986      -1.02874681E-10
   4.71199989      -9.63503582E-11
   4.71974993      -8.87453444E-11
   4.72749996      -8.00683894E-11
   4.73525000      -7.03369724E-11
   4.74300003      -5.95775512E-11
   4.75075006      -4.78257919E-11
   4.75850010      -3.51266967E-11
   4.76625013      -2.15346820E-11
   4.77400017      -7.11361612E-12
   4.78175020       8.06324191E-12
   4.78950024       2.39133643E-11
   4.79724979       4.03451474E-11
   4.80499983       5.72582294E-11
   4.81274986       7.45437739E-11
   4.82049990       9.20849300E-11
   4.82824993       1.09757411E-10
   4.83599997       1.27429969E-10
   4.84375000       1.44965151E-10
   4.85150003       1.62219946E-10
   4.85925007       1.79046708E-10
   4.86700010       1.95294003E-10
   4.87475014       2.10807524E-10
   4.88250017       2.25431118E-10
   4.89025021       2.39007869E-10
   4.89799976       2.51381277E-10
   4.90574980       2.62396271E-10
   4.91349983       2.71900613E-10
   4.92124987       2.79746060E-10
   4.92899990       2.85789559E-10
   4.93674994       2.89894636E-10
   4.94449997       2.91932617E-10
   4.95225000       2.91784014E-10
   4.96000004       2.89339719E-10
   4.96775007       2.84502255E-10
   4.97550011       2.77187162E-10
   4.98325014       2.67323941E-10
   4.99100018       2.54857441E-10
   4.99875021       2.39748749E-10
   5.00649977       2.21976312E-10
   5.01424980       2.01536829E-10
   5.02199984       1.78446050E-10
   5.02974987       1.52739585E-10
   5.03749990       1.24473473E-10
   5.04524994       9.37246808E-11
   5.05299997       6.05915179E-11
   5.06075001       2.51938383E-11
   5.06850004      -1.23268487E-11
   5.07625008      -5.18074438E-11
   5.08400011      -9.30634111E-11
   5.09175014      -1.35889286E-10
   5.09950018      -1.80059009E-10
   5.10725021      -2.25326785E-10
   5.11499977      -2.71427936E-10
   5.12274981      -3.18079729E-10
   5.13049984      -3.64982905E-10
   5.13824987      -4.11822743E-10
   5.14599991      -4.58270866E-10
   5.15374994      -5.03986519E-10
   5.16149998      -5.48618928E-10
   5.16925001      -5.91808824E-10
   5.17700005      -6.33190778E-10
   5.18475008      -6.72395362E-10
   5.19250011      -7.09051429E-10
   5.20025015      -7.42788664E-10
   5.20800018      -7.73240250E-10
   5.21575022      -8.00045252E-10
   5.22349977      -8.22851176E-10
   5.23124981      -8.41317016E-10
   5.23899984      -8.55115867E-10
   5.24674988      -8.63937422E-10
   5.25449991      -8.67491079E-10
   5.26224995      -8.65508110E-10
   5.26999998      -8.57745042E-10
   5.27775002      -8.43985604E-10
   5.28550005      -8.24043556E-10
   5.29325008      -7.97764577E-10
   5.30100012      -7.65029207E-10
   5.30875015      -7.25754457E-10
   5.31650019      -6.79895862E-10
   5.32425022      -6.27449093E-10
   5.33199978      -5.68451786E-10
   5.33974981      -5.02984487E-10
   5.34749985      -4.31171959E-10
   5.35524988      -3.53183927E-10
   5.36299992      -2.69235662E-10
   5.37074995      -1.79588205E-10
   5.37849998      -8.45484377E-11
   5.38625002       1.55312620E-11
   5.39400005       1.20253627E-10
   5.40175009       2.29177316E-10
   5.40950012       3.41818407E-10
   5.41725016       4.57651445E-10
   5.42500019       5.76111714E-10
   5.43275023       6.96597113E-10
   5.44049978       8.18470902E-10
   5.44824982       9.41063893E-10
   5.45599985       1.06367826E-09
   5.46374989       1.18558996E-09
   5.47149992       1.30605304E-09
   5.47924995       1.42430290E-09
   5.48699999       1.53956059E-09
   5.49475002       1.65103720E-09
   5.50250006       1.75793768E-09
   5.51025009       1.85946614E-09
   5.51800013       1.95482985E-09
   5.52575016       2.04324513E-09
   5.53350019       2.12394125E-09
   5.54125023       2.19616592E-09
   5.54899979       2.25919061E-09
   5.55674982       2.31231434E-09
   5.56449986       2.35487074E-09
   5.57224989       2.38623099E-09
   5.57999992       2.40580955E-09
   5.58774996       2.41306974E-09
   5.59549999       2.40752684E-09
   5.60325003       2.38875275E-09
   5.61100006       2.35638153E-09
   5.61875010       2.31011232E-09
   5.62650013       2.24971264E-09
   5.63425016       2.17502261E-09
   5.64200020       2.08595741E-09
   5.64975023       1.98251104E-09
   5.65749979       1.86475702E-09
   5.66524982       1.73285208E-09
   5.67299986       1.58703606E-09
   5.68074989       1.42763423E-09
   5.68849993       1.25505706E-09
   5.69624996       1.06980125E-09
   5.70400000       8.72448447E-10
   5.71175003       6.63665067E-10
   5.71950006       4.44200954E-10
   5.72725010       2.14887039E-10
   5.73500013      -2.33664008E-11
   5.74275017      -2.69573031E-10
   5.75050020      -5.22673349E-10
   5.75825024      -7.81539056E-10
   5.76599979      -1.04497710E-09
   5.77374983      -1.31173450E-09
   5.78149986      -1.58050362E-09
   5.78924990      -1.84992766E-09
   5.79699993      -2.11860751E-09
   5.80474997      -2.38510744E-09
   5.81250000      -2.64796318E-09
   5.82025003      -2.90568747E-09
   5.82800007      -3.15677928E-09
   5.83575010      -3.39973116E-09
   5.84350014      -3.63303654E-09
   5.85125017      -3.85519972E-09
   5.85900021      -4.06474232E-09
   5.86674976      -4.26021440E-09
   5.87449980      -4.44020110E-09
   5.88224983      -4.60333238E-09
   5.88999987      -4.74829065E-09
   5.89774990      -4.87382223E-09
   5.90549994      -4.97874186E-09
   5.91324997      -5.06194509E-09
   5.92100000      -5.12241405E-09
   5.92875004      -5.15922549E-09
   5.93650007      -5.17155962E-09
   5.94425011      -5.15870813E-09
   5.95200014      -5.12007681E-09
   5.95975018      -5.05519804E-09
   5.96750021      -4.96373120E-09
   5.97524977      -4.84547202E-09
   5.98299980      -4.70035477E-09
   5.99074984      -4.52845761E-09
   5.99849987      -4.33000613E-09
   6.00624990      -4.10537382E-09
   6.01399994      -3.85508780E-09
   6.02174997      -3.57982599E-09
   6.02950001      -3.28041971E-09
   6.03725004      -2.95785285E-09
   6.04500008      -2.61325894E-09
   6.05275011      -2.24792029E-09
   6.06050014      -1.86326377E-09
   6.06825018      -1.46085666E-09
   6.07600021      -1.04240216E-09
   6.08374977      -6.09731932E-10
   6.09149981      -1.64799965E-10
   6.09924984       2.90325514E-10
   6.10699987       7.53471729E-10
   6.11474991       1.22236965E-09
   6.12249994       1.69466641E-09
   6.13024998       2.16793428E-09
   6.13800001       2.63968603E-09
   6.14575005       3.10738502E-09
   6.15350008       3.56846042E-09
   6.16125011       4.02031963E-09
   6.16900015       4.46036497E-09
   6.17675018       4.88600760E-09
   6.18450022       5.29468380E-09
   6.19224977       5.68386938E-09
   6.19999981       6.05109651E-09
   6.20774984       6.39396802E-09
   6.21549988       6.71017952E-09
   6.22324991       6.99752611E-09
   6.23099995       7.25392546E-09
   6.23874998       7.47742934E-09
   6.24650002       7.66624098E-09
   6.25425005       7.81872789E-09
   6.26200008       7.93343435E-09
   6.26975012       8.00910005E-09
   6.27750015       8.04466360E-09
   6.28525019       8.03928302E-09
   6.29300022       7.99233657E-09
   6.30074978       7.90343879E-09
   6.30849981       7.77244491E-09
   6.31624985       7.59945884E-09
   6.32399988       7.38483275E-09
   6.33174992       7.12917680E-09
   6.33949995       6.83335832E-09
   6.34724998       6.49849818E-09
   6.35500002       6.12597439E-09
   6.36275005       5.71741454E-09
   6.37050009       5.27469357E-09
   6.37825012       4.79992313E-09
   6.38600016       4.29544489E-09
   6.39375019       3.76381992E-09
   6.40150023       3.20781490E-09
   6.40924978       2.63038791E-09
   6.41699982       2.03467421E-09
   6.42474985       1.42396706E-09
   6.43249989       8.01700040E-10
   6.44024992       1.71426054E-10
   6.44799995      -4.63204225E-10
   6.45574999      -1.09846432E-09
   6.46350002      -1.73057690E-09
   6.47125006      -2.35573783E-09
   6.47900009      -2.97014013E-09
   6.48675013      -3.57000185E-09
   6.49450016      -4.15159107E-09
   6.50225019      -4.71125139E-09
   6.51000023      -5.24542987E-09
   6.51774979      -5.75070036E-09
   6.52549982      -6.22379215E-09
   6.53324986      -6.66161126E-09
   6.54099989      -7.06126535E-09
   6.54874992      -7.42009076E-09
   6.55649996      -7.73566544E-09