  -7.75000006E-02   1.00000002E-24
  -6.97500035E-02   1.00000002E-24
  -6.19999990E-02   1.00000002E-24
  -5.42499982E-02   1.00000002E-24
  -4.65000011E-02   1.00000002E-24
  -3.87500003E-02   1.00000002E-24
  -3.09999995E-02   1.00000002E-24
  -2.32500006E-02   1.00000002E-24
  -1.54999997E-02   1.00000002E-24
  -7.74999987E-03   1.00000002E-24
   0.00000000       1.00000002E-24
   7.74999987E-03   1.00000002E-24
   1.54999997E-02   1.00000002E-24
   2.32500006E-02   1.00000002E-24
   3.09999995E-02   1.00000002E-24
   3.87500003E-02   1.00000002E-24
   4.65000011E-02   1.00000002E-24
   5.42499982E-02   1.00000002E-24
   6.19999990E-02   1.00000002E-24
   6.97500035E-02   1.00000002E-24
   7.75000006E-02   1.00000002E-24
   8.52499977E-02   1.00000002E-24
   9.30000022E-02   1.00000002E-24
  0.100749999       1.00000002E-24
  0.108499996       1.00000002E-24
  0.116250001       1.00000002E-24
  0.123999998       1.00000002E-24
  0.131750003       1.00000002E-24
  0.139500007       1.00000012E-24
  0.147249997       1.00000022E-24
  0.155000001       1.00000032E-24
  0.162750006       1.00000041E-24
  0.170499995       1.00000051E-24
  0.178250000       1.00000081E-24
  0.186000004       1.00000101E-24
  0.193749994       1.00000110E-24
  0.201499999       1.00000061E-24
  0.209250003       9.99998738E-25
  0.216999993       9.99994103E-25
  0.224749997       9.99983651E-25
  0.232500002       9.99962351E-25
  0.240250006       9.99921922E-25
  0.247999996       9.99848164E-25
  0.255750000       9.99718889E-25
  0.263500005       9.99498896E-25
  0.271250010       9.99134343E-25
  0.279000014       9.98544571E-25
  0.286749989       9.97610165E-25
  0.294499993       9.96158661E-25
  0.302249998       9.93943540E-25
  0.310000002       9.90619083E-25
  0.317750007       9.85707438E-25
  0.325500011       9.78557301E-25
  0.333249986       9.68293728E-25
  0.340999991       9.53757289E-25
  0.348749995       9.33432189E-25
  0.356500000       9.05363138E-25
  0.364250004       8.67061969E-25
  0.372000009       8.15404053E-25
  0.379750013       7.46519141E-25
  0.387499988       6.55680329E-25
  0.395249993       5.37197710E-25
  0.402999997       3.84326550E-25
  0.410750002       1.89201275E-25
  0.418500006      -5.71880461E-26
  0.426250011      -3.64958831E-25
  0.433999985      -7.45214415E-25
  0.441749990      -1.20981385E-24
  0.449499995      -1.77099845E-24
  0.457249999      -2.44084786E-24
  0.465000004      -3.23052582E-24
  0.472750008      -4.14928490E-24
  0.480500013      -5.20319519E-24
  0.488249987      -6.39356933E-24
  0.495999992      -7.71506991E-24
  0.503750026      -9.15348519E-24
  0.511500001      -1.06831977E-23
  0.519249976      -1.22643708E-23
  0.527000010      -1.38399477E-23
  0.534749985      -1.53325514E-23
  0.542500019      -1.66414704E-23
  0.550249994      -1.76399443E-23
  0.558000028      -1.81730455E-23
  0.565750003      -1.80565402E-23
  0.573499978      -1.70771741E-23
  0.581250012      -1.49949600E-23
  0.588999987      -1.15481151E-23
  0.596750021      -6.46142360E-24
  0.604499996       5.41082604E-25
  0.612249970       9.71823072E-24
  0.620000005       2.12874320E-23
  0.627749979       3.53929640E-23
  0.635500014       5.20656717E-23
  0.643249989       7.11727916E-23
  0.651000023       9.23568687E-23
  0.658749998       1.14962669E-22
  0.666499972       1.37951110E-22
  0.674250007       1.59799894E-22
  0.681999981       1.78390001E-22
  0.689750016       1.90878742E-22
  0.697499990       1.93559683E-22
  0.705250025       1.81711156E-22
  0.713000000       1.49435133E-22
  0.720749974       8.94902365E-23
  0.728500009      -6.87746213E-24
  0.736249983      -1.50099859E-22
  0.744000018      -3.52441217E-22
  0.751749992      -6.28133967E-22
  0.759500027      -9.93485517E-22
  0.767250001      -1.46694494E-21
  0.774999976      -2.06911273E-21
  0.782750010      -2.82268477E-21
  0.790499985      -3.75230815E-21
  0.798250020      -4.88433269E-21
  0.805999994      -6.24644187E-21
  0.813750029      -7.86713305E-21
  0.821500003      -9.77504129E-21
  0.829249978      -1.19980698E-20
  0.837000012      -1.45623095E-20
  0.844749987      -1.74907421E-20
  0.852500021      -2.08016941E-20
  0.860249996      -2.45070254E-20
  0.867999971      -2.86100513E-20
  0.875750005      -3.31031833E-20
  0.883499980      -3.79652960E-20
  0.891250014      -4.31588173E-20
  0.898999989      -4.86265781E-20
  0.906750023      -5.42884194E-20
  0.914499998      -6.00375767E-20
  0.922249973      -6.57370062E-20
  0.930000007      -7.12155332E-20
  0.937749982      -7.62640556E-20
  0.945500016      -8.06318213E-20
  0.953249991      -8.40229128E-20
  0.961000025      -8.60930163E-20
  0.968750000      -8.64467394E-20
  0.976499975      -8.46354465E-20
  0.984250009      -8.01560050E-20
  0.991999984      -7.24504428E-20
  0.999750018      -6.09068142E-20
   1.00750005      -4.48614749E-20
   1.01524997      -2.36029477E-20
   1.02300000       3.62233861E-21
   1.03075004       3.76023382E-20
   1.03849995       7.91492616E-20
   1.04624999       1.29087196E-19
   1.05400002       1.88236878E-19
   1.06175005       2.57397798E-19
   1.06949997       3.37327278E-19
   1.07725000       4.28716596E-19
   1.08500004       5.32164269E-19
   1.09274995       6.48145744E-19
   1.10049999       7.76980676E-19
   1.10825002       9.18797379E-19
   1.11600006       1.07349442E-18
   1.12374997       1.24070051E-18
   1.13150001       1.41973175E-18
   1.13925004       1.60954892E-18
   1.14699996       1.80871251E-18
   1.15474999       2.01533954E-18
   1.16250002       2.22706076E-18
   1.17025006       2.44097835E-18
   1.17799997       2.65362911E-18
   1.18575001       2.86095056E-18
   1.19350004       3.05825154E-18
   1.20124996       3.24019178E-18
   1.20899999       3.40076780E-18
   1.21675003       3.53330984E-18
   1.22449994       3.63048950E-18
   1.23224998       3.68433979E-18
   1.24000001       3.68628987E-18
   1.24775004       3.62721718E-18
   1.25549996       3.49751319E-18
   1.26324999       3.28717171E-18
   1.27100003       2.98589392E-18
   1.27874994       2.58321681E-18
   1.28649998       2.06866043E-18
   1.29425001       1.43189927E-18
   1.30200005       6.62956051E-19
   1.30974996      -2.47583429E-19
   1.31750000      -1.30833369E-18
   1.32525003      -2.52685004E-18
   1.33299994      -3.90935236E-18
   1.34074998      -5.46042809E-18
   1.34850001      -7.18272524E-18
   1.35625005      -9.07662226E-18
   1.36399996      -1.11399035E-17
   1.37175000      -1.33674199E-17
   1.37950003      -1.57507514E-17
   1.38724995      -1.82778725E-17
   1.39499998      -2.09328377E-17
   1.40275002      -2.36954671E-17
   1.41050005      -2.65410776E-17
   1.41824996      -2.94402348E-17
   1.42600000      -3.23585214E-17
   1.43375003      -3.52564064E-17
   1.44149995      -3.80891162E-17
   1.44924998      -4.08066096E-17
   1.45700002      -4.33535914E-17
   1.46475005      -4.56696210E-17
   1.47249997      -4.76893446E-17
   1.48025000      -4.93427562E-17
   1.48800004      -5.05556313E-17
   1.49574995      -5.12500263E-17
   1.50349998      -5.13449270E-17
   1.51125002      -5.07569968E-17
   1.51900005      -4.94014629E-17
   1.52674997      -4.71931487E-17
   1.53450000      -4.40476158E-17
   1.54225004      -3.98824404E-17
   1.54999995      -3.46186137E-17
   1.55774999      -2.81821030E-17
   1.56550002      -2.05054666E-17
   1.57325006      -1.15296338E-17
   1.58099997      -1.20575037E-18
   1.58875000       1.05028893E-17
   1.59650004       2.36188388E-17
   1.60424995       3.81484614E-17
   1.61199999       5.40798641E-17
   1.61975002       7.13808429E-17
   1.62750006       8.99968470E-17
   1.63524997       1.09849023E-16
   1.64300001       1.30832365E-16
   1.65075004       1.52813982E-16
   1.65849996       1.75631488E-16
   1.66624999       1.99091772E-16
   1.67400002       2.22969777E-16
   1.68175006       2.47007936E-16
   1.68949997       2.70915441E-16
   1.69725001       2.94368354E-16
   1.70500004       3.17010127E-16
   1.71274996       3.38452158E-16
   1.72049999       3.58275402E-16
   1.72825003       3.76032230E-16
   1.73599994       3.91248965E-16
   1.74374998       4.03429034E-16
   1.75150001       4.12056806E-16
   1.75925004       4.16602117E-16
   1.76699996       4.16525355E-16
   1.77474999       4.11283439E-16
   1.78250003       4.00336464E-16
   1.79024994       3.83154824E-16
   1.79799998       3.59227308E-16
   1.80575001       3.28069704E-16
   1.81350005       2.89233905E-16
   1.82124996       2.42317783E-16
   1.82900000       1.86975363E-16
   1.83675003       1.22927549E-16
   1.84449995       4.99729620E-17
   1.85224998      -3.20008286E-17
   1.86000001      -1.23006151E-16
   1.86775005      -2.22943969E-16
   1.87549996      -3.31592991E-16
   1.88325000      -4.48599025E-16
   1.89100003      -5.73465075E-16
   1.89874995      -7.05541917E-16
   1.90649998      -8.44019680E-16
   1.91425002      -9.87920784E-16
   1.92200005      -1.13609406E-15
   1.92974997      -1.28721035E-15
   1.93750000      -1.43975971E-15
   1.94525003      -1.59205168E-15
   1.95299995      -1.74221612E-15
   1.96074998      -1.88820775E-15
   1.96850002      -2.02781297E-15
   1.97625005      -2.15865944E-15
   1.98399997      -2.27822831E-15
   1.99175000      -2.38387068E-15
   1.99950004      -2.47282523E-15
   2.00725007      -2.54224212E-15
   2.01500010      -2.58920735E-15
   2.02274990      -2.61077323E-15
   2.03049994      -2.60398956E-15
   2.03824997      -2.56594084E-15
   2.04600000      -2.49378400E-15
   2.05375004      -2.38479246E-15
   2.06150007      -2.23639928E-15
   2.06925011      -2.04624610E-15
   2.07699990      -1.81223250E-15
   2.08474994      -1.53256784E-15
   2.09249997      -1.20582446E-15
   2.10025001      -8.30990831E-16
   2.10800004      -4.07526900E-16
   2.11575007       6.45832645E-17
   2.12350011       5.84778259E-16
   2.13124990       1.15186867E-15
   2.13899994       1.76398910E-15
   2.14674997       2.41855350E-15
   2.15450001       3.11221568E-15
   2.16225004       3.84083236E-15
   2.17000008       4.59943846E-15
   2.17775011       5.38222184E-15
   2.18549991       6.18251381E-15
   2.19324994       6.99278129E-15
   2.20099998       7.80463696E-15
   2.20875001       8.60885324E-15
   2.21650004       9.39539279E-15
   2.22425008       1.01534483E-14
   2.23200011       1.08714985E-14
   2.23974991       1.15373739E-14
   2.24749994       1.21383421E-14
   2.25524998       1.26612029E-14
   2.26300001       1.30923968E-14
   2.27075005       1.34181369E-14
   2.27850008       1.36245427E-14
   2.28625011       1.36977992E-14
   2.29399991       1.36243217E-14
   2.30174994       1.33909404E-14
   2.30949998       1.29850871E-14
   2.31725001       1.23950007E-14
   2.32500005       1.16099409E-14
   2.33275008       1.06204023E-14
   2.34050012       9.41833976E-15
   2.34824991       7.99739710E-15
   2.35599995       6.35313208E-15
   2.36374998       4.48324459E-15
   2.37150002       2.38779371E-15
   2.37925005       6.94115575E-17
   2.38700008      -2.46649430E-15
   2.39475012      -5.21155528E-15
   2.40249991      -8.15427692E-15
   2.41024995      -1.12798827E-14
   2.41799998      -1.45702017E-14
   2.42575002      -1.80035701E-14
   2.43350005      -2.15547693E-14
   2.44125009      -2.51950052E-14
   2.44899988      -2.88919245E-14
   2.45674992      -3.26096538E-14
   2.46449995      -3.63089211E-14
   2.47224998      -3.99472020E-14
   2.48000002      -4.34789059E-14
   2.48775005      -4.68556434E-14
   2.49550009      -5.00265079E-14
   2.50324988      -5.29384614E-14
   2.51099992      -5.55367316E-14
   2.51874995      -5.77652889E-14
   2.52649999      -5.95673481E-14
   2.53425002      -6.08859751E-14
   2.54200006      -6.16646694E-14
   2.54975009      -6.18480825E-14
   2.55749989      -6.13826684E-14
   2.56524992      -6.02174899E-14
   2.57299995      -5.83049708E-14
   2.58074999      -5.56017126E-14
   2.58850002      -5.20693243E-14
   2.59625006      -4.76752562E-14
   2.60400009      -4.23936433E-14
   2.61174989      -3.62061523E-14
   2.61949992      -2.91027714E-14
   2.62724996      -2.10826331E-14
   2.63499999      -1.21547585E-14
   2.64275002      -2.33874818E-15
   2.65050006       8.33455517E-15
   2.65825009       1.98225158E-14
   2.66599989       3.20702056E-14
   2.67374992       4.50100196E-14
   2.68149996       5.85614050E-14
   2.68924999       7.26307035E-14
   2.69700003       8.71111112E-14
   2.70475006       1.01882831E-13
   2.71250010       1.16813270E-13
   2.72024989       1.31757561E-13
   2.72799993       1.46559102E-13
   2.73574996       1.61050291E-13
   2.74349999       1.75053562E-13
   2.75125003       1.88382445E-13
   2.75900006       2.00842909E-13
   2.76675010       2.12234798E-13
   2.77449989       2.22353616E-13
   2.78224993       2.30992254E-13
   2.78999996       2.37943075E-13
   2.79775000       2.43000037E-13
   2.80550003       2.45961021E-13
   2.81325006       2.46630299E-13
   2.82100010       2.44821090E-13
   2.82874990       2.40358108E-13
   2.83649993       2.33080455E-13
   2.84424996       2.22844245E-13
   2.85200000       2.09525539E-13
   2.85975003       1.93022952E-13
   2.86750007       1.73260576E-13
   2.87525010       1.50190515E-13
   2.88299990       1.23795614E-13
   2.89074993       9.40917402E-14
   2.89849997       6.11301848E-14
   2.90625000       2.49996269E-14
   2.91400003      -1.41719962E-14
   2.92175007      -5.62159877E-14
   2.92950010      -1.00921679E-13
   2.93724990      -1.48035569E-13
   2.94499993      -1.97260855E-13
   2.95274997      -2.48257361E-13
   2.96050000      -3.00641971E-13
   2.96825004      -3.53989489E-13
   2.97600007      -4.07834004E-13
   2.98375010      -4.61670741E-13
   2.99149990      -5.14958464E-13
   2.99924994      -5.67122629E-13
   3.00699997      -6.17558576E-13
   3.01475000      -6.65635895E-13
   3.02250004      -7.10702872E-13
   3.03025007      -7.52091640E-13
   3.03800011      -7.89123920E-13
   3.04574990      -8.21117046E-13
   3.05349994      -8.47390517E-13
   3.06124997      -8.67273376E-13
   3.06900001      -8.80111197E-13
   3.07675004      -8.85274113E-13
   3.08450007      -8.82164621E-13
   3.09225011      -8.70225983E-13
   3.09999990      -8.48950305E-13
   3.10774994      -8.17887153E-13
   3.11549997      -7.76651855E-13
   3.12325001      -7.24933731E-13
   3.13100004      -6.62504231E-13
   3.13875008      -5.89224416E-13
   3.14650011      -5.05052705E-13
   3.15424991      -4.10051442E-13
   3.16199994      -3.04393256E-13
   3.16974998      -1.88366643E-13
   3.17750001      -6.23806494E-14
   3.18525004       7.30311807E-14
   3.19300008       2.17207979E-13
   3.20075011       3.69359735E-13
   3.20849991       5.28566665E-13
   3.21624994       6.93779886E-13
   3.22399998       8.63823444E-13
   3.23175001       1.03739716E-12
   3.23950005       1.21308215E-12
   3.24725008       1.38934643E-12
   3.25500011       1.56455274E-12
   3.26274991       1.73696767E-12
   3.27049994       1.90477300E-12
   3.27824998       2.06607713E-12
   3.28600001       2.21892925E-12
   3.29375005       2.36133444E-12
   3.30150008       2.49126999E-12
   3.30925012       2.60670261E-12
   3.31699991       2.70560874E-12
   3.32474995       2.78599279E-12
   3.33249998       2.84590971E-12
   3.34025002       2.88348490E-12
   3.34800005       2.89693855E-12
   3.35575008       2.88460597E-12
   3.36350012       2.84496190E-12
   3.37124991       2.77664372E-12
   3.37899995       2.67847333E-12
   3.38674998       2.54947972E-12
   3.39450002       2.38892066E-12
   3.40225005       2.19630325E-12
   3.41000009       1.97140329E-12
   3.41774988       1.71428431E-12
   3.42549992       1.42531213E-12
   3.43324995       1.10517118E-12
   3.44099998       7.54875600E-13
   3.44875002       3.75779296E-13
   3.45650005      -3.04165906E-14
   3.46425009      -4.61659682E-13
   3.47199988      -9.15544984E-13
   3.47974992      -1.38931705E-12
   3.48749995      -1.87987560E-12
   3.49524999      -2.38378393E-12
   3.50300002      -2.89728224E-12
   3.51075006      -3.41630413E-12
   3.51850009      -3.93649479E-12
   3.52624989      -4.45323899E-12
   3.53399992      -4.96168471E-12
   3.54174995      -5.45677739E-12
   3.54949999      -5.93329292E-12
   3.55725002      -6.38587924E-12
   3.56500006      -6.80909452E-12
   3.57275009      -7.19745487E-12
   3.58049989      -7.54548247E-12
   3.58824992      -7.84775370E-12
   3.59599996      -8.09895206E-12
   3.60374999      -8.29392631E-12
   3.61150002      -8.42774028E-12
   3.61925006      -8.49573363E-12
   3.62700009      -8.49358084E-12
   3.63474989      -8.41734321E-12
   3.64249992      -8.26352962E-12
   3.65024996      -8.02915026E-12
   3.65799999      -7.71177133E-12
   3.66575003      -7.30956788E-12
   3.67350006      -6.82136942E-12
   3.68125010      -6.24670931E-12
   3.68899989      -5.58586294E-12
   3.69674993      -4.83988630E-12
   3.70449996      -4.01064728E-12
   3.71224999      -3.10085031E-12
   3.72000003      -2.11405806E-12
   3.72775006      -1.05470298E-12
   3.73550010       7.19072764E-14
   3.74324989       1.25959096E-12
   3.75099993       2.50130255E-12
   3.75874996       3.78915172E-12
   3.76650000       5.11442754E-12
   3.77425003       6.46763676E-12
   3.78200006       7.83854752E-12
   3.78975010       9.21623975E-12
   3.79749990       1.05891702E-11
   3.80524993       1.19452399E-11
   3.81299996       1.32718758E-11
   3.82075000       1.45561167E-11
   3.82850003       1.57847051E-11
   3.83625007       1.69441960E-11
   3.84400010       1.80210534E-11
   3.85174990       1.90017811E-11
   3.85949993       1.98730251E-11
   3.86724997       2.06217144E-11
   3.87500000       2.12351751E-11
   3.88275003       2.17012710E-11
   3.89050007       2.20085321E-11
   3.89825010       2.21462796E-11
   3.90599990       2.21047746E-11
   3.91374993       2.18753279E-11
   3.92149997       2.14504456E-11
   3.92925000       2.08239381E-11
   3.93700004       1.99910470E-11
   3.94475007       1.89485407E-11
   3.95250010       1.76948369E-11
   3.96024990       1.62300728E-11
   3.96799994       1.45562017E-11
   3.97574997       1.26770573E-11
   3.98350000       1.05984102E-11
   3.99125004       8.32801016E-12
   3.99900007       5.87561336E-12
   4.00675011       3.25299401E-12
   4.01450014       4.73937567E-13
   4.02225018      -2.44578056E-12
   4.03000021      -5.48844000E-12
   4.03774977      -8.63443345E-12
   4.04549980      -1.18623427E-11
   4.05324984      -1.51490452E-11
   4.06099987      -1.84698246E-11
   4.06874990      -2.17985040E-11
   4.07649994      -2.51076070E-11
   4.08424997      -2.83685297E-11
   4.09200001      -3.15517334E-11
   4.09975004      -3.46269333E-11
   4.10750008      -3.75633448E-11
   4.11525011      -4.03299096E-11
   4.12300014      -4.28955343E-11
   4.13075018      -4.52293619E-11
   4.13850021      -4.73010450E-11
   4.14624977      -4.90810101E-11
   4.15399981      -5.05407452E-11
   4.16174984      -5.16530915E-11
   4.16949987      -5.23925313E-11
   4.17724991      -5.27354549E-11
   4.18499994      -5.26604697E-11
   4.19274998      -5.21486604E-11
   4.20050001      -5.11838627E-11
   4.20825005      -4.97529067E-11
   4.21600008      -4.78458800E-11
   4.22375011      -4.54563366E-11
   4.23150015      -4.25815182E-11
   4.23925018      -3.92225245E-11
   4.24700022      -3.53844697E-11
   4.25474977      -3.10766447E-11
   4.26249981      -2.63125945E-11
   4.27024984      -2.11102039E-11
   4.27799988      -1.54917450E-11
   4.28574991      -9.48387289E-12
   4.29349995      -3.11761272E-12
   4.30124998       3.57171454E-12
   4.30900002       1.05445886E-11
   4.31675005       1.77574361E-11
   4.32450008       2.51628024E-11
   4.33225012       3.27095746E-11
   4.34000015       4.03432357E-11
   4.34775019       4.80061685E-11
   4.35550022       5.56379734E-11
   4.36324978       6.31758604E-11
   4.37099981       7.05550271E-11
   4.37874985       7.77091169E-11
   4.38649988       8.45706560E-11
   4.39424992       9.10715947E-11
   4.40199995       9.71437791E-11
   4.40974998       1.02719527E-10
   4.41750002       1.07732170E-10
   4.42525005       1.12116628E-10
   4.43300009       1.15810007E-10
   4.44075012       1.18752175E-10
   4.44850016       1.20886356E-10
   4.45625019       1.22159768E-10
   4.46400023       1.22524102E-10
   4.47174978       1.21936197E-10
   4.47949982       1.20358515E-10
   4.48724985       1.17759733E-10
   4.49499989       1.14115183E-10
   4.50274992       1.09407386E-10
   4.51049995       1.03626413E-10
   4.51824999       9.67703348E-11
   4.52600002       8.88455073E-11
   4.53375006       7.98669186E-11
   4.54150009       6.98583552E-11
   4.54925013       5.88526380E-11
   4.55700016       4.68916850E-11
   4.56475019       3.40265802E-11
   4.57250023       2.03175220E-11
   4.58024979       5.83374408E-12
   4.58799982      -9.34666667E-12
   4.59574986      -2.51370279E-11
   4.60349989      -4.14423704E-11
   4.61124992      -5.81598728E-11
   4.61899996      -7.51792933E-11
   4.62674999      -9.23835800E-11
   4.63450003      -1.09649449E-10
   4.64225006      -1.26848143E-10
   4.65000010      -1.43846143E-10
   4.65775013      -1.60506053E-10
   4.66550016      -1.76687456E-10
   4.67325020      -1.92247884E-10
   4.68100023      -2.07043854E-10
   4.68874979      -2.20931884E-10
   4.69649982      -2.33769615E-10
   4.70424986      -2.45416881E-10
   4.71199989      -2.55736959E-10
   4.71974993      -2.64597594E-10
   4.72749996      -2.71872330E-10
   4.73525000      -2.77441597E-10
   4.74300003      -2.81193790E-10
   4.75075006      -2.83026685E-10
   4.75850010      -2.82848273E-10
   4.76625013      -2.80577950E-10
   4.77400017      -2.76147605E-10
   4.78175020      -2.69502615E-10
   4.78950024      -2.60602540E-10
   4.79724979      -2.49422261E-10
   4.80499983      -2.35952535E-10
   4.81274986      -2.20200663E-10
   4.82049990      -2.02191167E-10
   4.82824993      -1.81966095E-10
   4.83599997      -1.59585456E-10
   4.84375000      -1.35127340E-10
   4.85150003      -1.08688086E-10
   4.85925007      -8.03821176E-11
   4.86700010      -5.03418522E-11
   4.87475014      -1.87172916E-11
   4.88250017       1.43244479E-11
   4.89025021       4.85997527E-11
   4.89799976       8.39092892E-11
   4.90574980       1.20038965E-10
   4.91349983       1.56760924E-10
   4.92124987       1.93834809E-10
   4.92899990       2.31009059E-10
   4.93674994       2.68022438E-10
   4.94449997       3.04605563E-10
   4.95225000       3.40482670E-10
   4.96000004       3.75373371E-10
   4.96775007       4.08994616E-10
   4.97550011       4.41062631E-10
   4.98325014       4.71295059E-10
   4.99100018       4.99413011E-10
   4.99875021       5.25143262E-10
   5.00649977       5.48220525E-10
   5.01424980       5.68389502E-10
   5.02199984       5.85407223E-10
   5.02974987       5.99045091E-10
   5.03749990       6.09091333E-10
   5.04524994       6.15352824E-10
   5.05299997       6.17657037E-10
   5.06075001       6.15854312E-10
   5.06850004       6.09819362E-10
   5.07625008       5.99453154E-10
   5.08400011       5.84684412E-10
   5.09175014       5.65471114E-10
   5.09950018       5.41801382E-10
   5.10725021       5.13694975E-10
   5.11499977       4.81203855E-10
   5.12274981       4.44412812E-10
   5.13049984       4.03439948E-10
   5.13824987       3.58436836E-10
   5.14599991       3.09588299E-10
   5.15374994       2.57112276E-10
   5.16149998       2.01259037E-10
   5.16925001       1.42310469E-10
   5.17700005       8.05788700E-11
   5.18475008       1.64056563E-11
   5.19250011      -4.98403055E-11
   5.20025015      -1.17764562E-10
   5.20800018      -1.86949206E-10
   5.21575022      -2.56955263E-10
   5.22349977      -3.27325222E-10
   5.23124981      -3.97585825E-10
   5.23899984      -4.67251071E-10
   5.24674988      -5.35825551E-10
   5.25449991      -6.02807526E-10
   5.26224995      -6.67692457E-10
   5.26999998      -7.29976690E-10
   5.27775002      -7.89161125E-10
   5.28550005      -8.44754822E-10
   5.29325008      -8.96279051E-10
   5.30100012      -9.43270795E-10
   5.30875015      -9.85286963E-10
   5.31650019      -1.02190745E-09
   5.32425022      -1.05273990E-09
   5.33199978      -1.07742215E-09
   5.33974981      -1.09562648E-09
   5.34749985      -1.10706244E-09
   5.35524988      -1.11148035E-09
   5.36299992      -1.10867382E-09
   5.37074995      -1.09848286E-09
   5.37849998      -1.08079568E-09
   5.38625002      -1.05555131E-09
   5.39400005      -1.02274134E-09
   5.40175009      -9.82410819E-10
   5.40950012      -9.34660127E-10
   5.41725016      -8.79645190E-10
   5.42500019      -8.17577839E-10
   5.43275023      -7.48725915E-10
   5.44049978      -6.73412881E-10
   5.44824982      -5.92016491E-10
   5.45599985      -5.04968012E-10
   5.46374989      -4.12750195E-10
   5.47149992      -3.15895116E-10
   5.47924995      -2.14981796E-10
   5.48699999      -1.10633093E-10
   5.49475002      -3.51240348E-12
   5.50250006       1.05680069E-10
   5.51025009       2.16211410E-10
   5.51800013       3.27320476E-10
   5.52575016       4.38222514E-10
   5.53350019       5.48114332E-10
   5.54125023       6.56179500E-10
   5.54899979       7.61593955E-10
   5.55674982       8.63531746E-10
   5.56449986       9.61170810E-10
   5.57224989       1.05369924E-09
   5.57999992       1.14032073E-09
   5.58774996       1.22026178E-09
   5.59549999       1.29277677E-09
   5.60325003       1.35715472E-09
   5.61100006       1.41272505E-09
   5.61875010       1.45886336E-09
   5.62650013       1.49499790E-09
   5.63425016       1.52061375E-09
   5.64200020       1.53525892E-09
   5.64975023       1.53854962E-09
   5.65749979       1.53017354E-09
   5.66524982       1.50989576E-09
   5.67299986       1.47756107E-09
   5.68074989       1.43309775E-09
   5.68849993       1.37652123E-09
   5.69624996       1.30793487E-09
   5.70400000       1.22753330E-09
   5.71175003       1.13560217E-09
   5.71950006       1.03251996E-09
   5.72725010       9.18757126E-10
   5.73500013       7.94875832E-10
   5.74275017       6.61528388E-10
   5.75050020       5.19455479E-10
   5.75825024       3.69483472E-10
   5.76599979       2.12521181E-10
   5.77374983       4.95558455E-11
   5.78149986      -1.18351329E-10
   5.78924990      -2.90070468E-10
   5.79699993      -4.64408845E-10
   5.80474997      -6.40117070E-10
   5.81250000      -8.15896462E-10
   5.82025003      -9.90406090E-10
   5.82800007      -1.16227117E-09
   5.83575010      -1.33009104E-09
   5.84350014      -1.49244872E-09
   5.85125017      -1.64791947E-09
   5.85900021      -1.79508064E-09
   5.86674976      -1.93252148E-09
   5.87449980      -2.05885375E-09
   5.88224983      -2.17272067E-09
   5.88999987      -2.27280816E-09
   5.89774990      -2.35785502E-09
   5.90549994      -2.42666376E-09
   5.91324997      -2.47810972E-09
   5.92100000      -2.51115173E-09
   5.92875004      -2.52484167E-09
   5.93650007      -2.51833465E-09
   5.94425011      -2.49089749E-09
   5.95200014      -2.44191778E-09
   5.95975018      -2.37091169E-09
   5.96750021      -2.27753261E-09
   5.97524977      -2.16157625E-09
   5.98299980      -2.02298933E-09
   5.99074984      -1.86187321E-09
   5.99849987      -1.67848957E-09
   6.00624990      -1.47326418E-09
   6.01399994      -1.24678945E-09
   6.02174997      -9.99826555E-10
   6.02950001      -7.33306527E-10
   6.03725004      -4.48330068E-10
   6.04500008      -1.46166190E-10
   6.05275011       1.71750170E-10
   6.06050014       5.03821485E-10
   6.06825018       8.48292547E-10
   6.07600021       1.20325583E-09
   6.08374977       1.56665902E-09
   6.09149981       1.93631311E-09
   6.09924984       2.30990183E-09
   6.10699987       2.68499112E-09
   6.11474991       3.05904324E-09
   6.12249994       3.42942674E-09
   6.13024998       3.79343179E-09
   6.13800001       4.14828616E-09
   6.14575005       4.49116744E-09
   6.15350008       4.81922369E-09
   6.16125011       5.12958831E-09
   6.16900015       5.41939960E-09
   6.17675018       5.68581981E-09
   6.18450022       5.92605298E-09
   6.19224977       6.13736617E-09
   6.19999981       6.31711128E-09
   6.20774984       6.46274101E-09
   6.21549988       6.57183552E-09
   6.22324991       6.64211841E-09
   6.23099995       6.67147848E-09
   6.23874998       6.65799016E-09
   6.24650002       6.59993438E-09
   6.25425005       6.49581633E-09
   6.26200008       6.34438413E-09
   6.26975012       6.14464524E-09
   6.27750015       5.89588645E-09
   6.28525019       5.59768498E-09
   6.29300022       5.24992672E-09
   6.30074978       4.85281504E-09
   6.30849981       4.40688286E-09
   6.31624985       3.91300370E-09
   6.32399988       3.37239658E-09
   6.33174992       2.78663137E-09
   6.33949995       2.15763274E-09
   6.34724998       1.48768098E-09
   6.35500002       7.79409370E-10
   6.36275005       3.58007235E-11
   6.37050009      -7.39819206E-10
   6.37825012      -1.54379109E-09
   6.38600016      -2.37213338E-09
   6.39375019      -3.22055693E-09
   6.40150023      -4.08448342E-09
   6.40924978      -4.95906249E-09
   6.41699982      -5.83919624E-09
   6.42474985      -6.71956313E-09
   6.43249989      -7.59464669E-09
   6.44024992      -8.45876258E-09
   6.44799995      -9.30609367E-09
   6.45574999      -1.01307212E-08
   6.46350002      -1.09266640E-08
   6.47125006      -1.16879146E-08
   6.47900009      -1.24084787E-08
   6.48675013      -1.30824152E-08
   6.49450016      -1.37038789E-08
   6.50225019      -1.42671643E-08
   6.51000023      -1.47667478E-08
   6.51774979      -1.51973314E-08
   6.52549982      -1.55538835E-08
   6.53324986      -1.58316844E-08
   6.54099989      -1.60263713E-08
   6.54874992      -1.61339724E-08
   6.55649996      -1.61509526E-08