  -7.75000006E-02   1.00000002E-24
  -6.97500035E-02   1.00000002E-24
  -6.19999990E-02   1.00000002E-24
  -5.42499982E-02   1.00000002E-24
  -4.65000011E-02   1.00000002E-24
  -3.87500003E-02   1.00000002E-24
  -3.09999995E-02   1.00000002E-24
  -2.32500006E-02   1.00000002E-24
  -1.54999997E-02   1.00000002E-24
  -7.74999987E-03   1.00000002E-24
   0.00000000       1.00000002E-24
   7.74999987E-03   1.00000002E-24
   1.54999997E-02   1.00000002E-24
   2.32500006E-02   1.00000002E-24
   3.09999995E-02   1.00000002E-24
   3.87500003E-02   1.00000002E-24
   4.65000011E-02   1.00000002E-24
   5.42499982E-02   1.00000002E-24
   6.19999990E-02   1.00000002E-24
   6.97500035E-02   1.00000002E-24
   7.75000006E-02   1.00000002E-24
   8.52499977E-02   1.00000002E-24
   9.30000022E-02   1.00000002E-24
  0.100749999       1.00000002E-24
  0.108499996       1.00000002E-24
  0.116250001       1.00000002E-24
  0.123999998       1.00000012E-24
  0.131750003       1.00000022E-24
  0.139500007       1.00000032E-24
  0.147249997       1.00000071E-24
  0.155000001       1.00000140E-24
  0.162750006       1.00000268E-24
  0.170499995       1.00000495E-24
  0.178250000       1.00000909E-24
  0.186000004       1.00001619E-24
  0.193749994       1.00002832E-24
  0.201499999       1.00004853E-24
  0.209250003       1.00008137E-24
  0.216999993       1.00013393E-24
  0.224749997       1.00021597E-24
  0.232500002       1.00034199E-24
  0.240250006       1.00053151E-24
  0.247999996       1.00081186E-24
  0.255750000       1.00121891E-24
  0.263500005       1.00179981E-24
  0.271250010       1.00261470E-24
  0.279000014       1.00373863E-24
  0.286749989       1.00526231E-24
  0.294499993       1.00729235E-24
  0.302249998       1.00994923E-24
  0.310000002       1.01336342E-24
  0.317750007       1.01766587E-24
  0.325500011       1.02297638E-24
  0.333249986       1.02938312E-24
  0.340999991       1.03691565E-24
  0.348749995       1.04550921E-24
  0.356500000       1.05495789E-24
  0.364250004       1.06485928E-24
  0.372000009       1.07454797E-24
  0.379750013       1.08302221E-24
  0.387499988       1.08886895E-24
  0.395249993       1.09019246E-24
  0.402999997       1.08456098E-24
  0.410750002       1.06898778E-24
  0.418500006       1.03997042E-24
  0.426250011       9.93621487E-25
  0.433999985       9.25933672E-25
  0.441749990       8.33232753E-25
  0.449499995       7.12888965E-25
  0.457249999       5.64368249E-25
  0.465000004       3.90726455E-25
  0.472750008       2.00665026E-25
  0.480500013       1.12853532E-26
  0.488249987      -1.48298874E-25
  0.495999992      -2.32321755E-25
  0.503750026      -1.72503049E-25
  0.511500001       1.29230590E-25
  0.519249976       8.09646010E-25
  0.527000010       2.05493079E-24
  0.534749985       4.11342053E-24
  0.542500019       7.31048839E-24
  0.550249994       1.20656962E-23
  0.558000028       1.89122586E-23
  0.565750003       2.85187448E-23
  0.573499978       4.17128474E-23
  0.581250012       5.95069083E-23
  0.588999987       8.31246465E-23
  0.596750021       1.14028354E-22
  0.604499996       1.53945612E-22
  0.612249970       2.04894036E-22
  0.620000005       2.69202735E-22
  0.627749979       3.49527985E-22
  0.635500014       4.48861047E-22
  0.643249989       5.70525310E-22
  0.651000023       7.18158723E-22
  0.658749998       8.95679084E-22
  0.666499972       1.10722628E-21
  0.674250007       1.35707845E-21
  0.681999981       1.64953617E-21
  0.689750016       1.98876979E-21
  0.697499990       2.37862369E-21
  0.705250025       2.82237519E-21
  0.713000000       3.32243697E-21
  0.720749974       3.88000618E-21
  0.728500009       4.49464701E-21
  0.736249983       5.16381432E-21
  0.744000018       5.88230429E-21
  0.751749992       6.64164357E-21
  0.759500027       7.42940830E-21
  0.767250001       8.22848820E-21
  0.774999976       9.01629049E-21
  0.782750010       9.76390828E-21
  0.790499985       1.04352534E-20
  0.798250020       1.09861823E-20
  0.805999994       1.13636408E-20
  0.813750029       1.15048391E-20
  0.821500003       1.13365111E-20
  0.829249978       1.07742819E-20
  0.837000012       9.72219544E-21
  0.844749987       8.07244833E-21
  0.852500021       5.70537690E-21
  0.860249996       2.48977447E-21
  0.867999971      -1.71642037E-21
  0.875750005      -7.06499081E-21
  0.883499980      -1.37157952E-20
  0.891250014      -2.18345406E-20
  0.898999989      -3.15899339E-20
  0.906750023      -4.31500996E-20
  0.914499998      -5.66782863E-20
  0.922249973      -7.23277228E-20
  0.930000007      -9.02357113E-20
  0.937749982      -1.10516771E-19
  0.945500016      -1.33255023E-19
  0.953249991      -1.58495702E-19
  0.961000025      -1.86235812E-19
  0.968750000      -2.16414230E-19
  0.976499975      -2.48900973E-19
  0.984250009      -2.83486144E-19
  0.991999984      -3.19868468E-19
  0.999750018      -3.57643842E-19
   1.00750005      -3.96293805E-19
   1.01524997      -4.35174654E-19
   1.02300000      -4.73507289E-19
   1.03075004      -5.10367801E-19
   1.03849995      -5.44680287E-19
   1.04624999      -5.75210955E-19
   1.05400002      -6.00564919E-19
   1.06175005      -6.19185892E-19
   1.06949997      -6.29359490E-19
   1.07725000      -6.29219748E-19
   1.08500004      -6.16761012E-19
   1.09274995      -5.89854068E-19
   1.10049999      -5.46267802E-19
   1.10825002      -4.83696758E-19
   1.11600006      -3.99794872E-19
   1.12374997      -2.92215381E-19
   1.13150001      -1.58657778E-19
   1.13925004       3.07881047E-21
   1.14699996       1.95035269E-19
   1.15474999       4.19026020E-19
   1.16250002       6.76565757E-19
   1.17025006       9.68791142E-19
   1.17799997       1.29637689E-18
   1.18575001       1.65944808E-18
   1.19350004       2.05748976E-18
   1.20124996       2.48925426E-18
   1.20899999       2.95266814E-18
   1.21675003       3.44474258E-18
   1.22449994       3.96148500E-18
   1.23224998       4.49781691E-18
   1.24000001       5.04750159E-18
   1.24775004       5.60308076E-18
   1.25549996       6.15582477E-18
   1.26324999       6.69569867E-18
   1.27100003       7.21134652E-18
   1.27874994       7.69009880E-18
   1.28649998       8.11800430E-18
   1.29425001       8.47988754E-18
   1.30200005       8.75943323E-18
   1.30974996       8.93931193E-18
   1.31750000       9.00132897E-18
   1.32525003       8.92661471E-18
   1.33299994       8.69585282E-18
   1.34074998       8.28954253E-18
   1.34850001       7.68830051E-18
   1.35625005       6.87320253E-18
   1.36399996       5.82615565E-18
   1.37175000       4.53031229E-18
   1.37950003       2.97051022E-18
   1.38724995       1.13374285E-18
   1.39499998      -9.90346331E-19
   1.40275002      -3.40895130E-18
   1.41050005      -6.12558263E-18
   1.41824996      -9.13953348E-18
   1.42600000      -1.24453616E-17
   1.43375003      -1.60323667E-17
   1.44149995      -1.98841100E-17
   1.44924998      -2.39779509E-17
   1.45700002      -2.82846304E-17
   1.46475005      -3.27679196E-17
   1.47249997      -3.73843186E-17
   1.48025000      -4.20828534E-17
   1.48800004      -4.68049496E-17
   1.49574995      -5.14844128E-17
   1.50349998      -5.60475348E-17
   1.51125002      -6.04133015E-17
   1.51900005      -6.44937768E-17
   1.52674997      -6.81945763E-17
   1.53450000      -7.14155514E-17
   1.54225004      -7.40515907E-17
   1.54999995      -7.59935990E-17
   1.55774999      -7.71296489E-17
   1.56550002      -7.73462709E-17
   1.57325006      -7.65299496E-17
   1.58099997      -7.45687308E-17
   1.58875000      -7.13540290E-17
   1.59650004      -6.67824731E-17
   1.60424995      -6.07580240E-17
   1.61199999      -5.31940661E-17
   1.61975002      -4.40156469E-17
   1.62750006      -3.31617535E-17
   1.63524997      -2.05876536E-17
   1.64300001      -6.26718850E-18
   1.65075004       9.80490929E-18
   1.65849996       2.76108107E-17
   1.66624999       4.71074561E-17
   1.67400002       6.82245731E-17
   1.68175006       9.08629051E-17
   1.68949997       1.14892581E-16
   1.69725001       1.40151911E-16
   1.70500004       1.66446328E-16
   1.71274996       1.93547796E-16
   1.72049999       2.21194528E-16
   1.72825003       2.49091214E-16
   1.73599994       2.76909708E-16
   1.74374998       3.04290154E-16
   1.75150001       3.30842758E-16
   1.75925004       3.56149932E-16
   1.76699996       3.79769234E-16
   1.77474999       4.01236675E-16
   1.78250003       4.20070823E-16
   1.79024994       4.35777355E-16
   1.79799998       4.47854060E-16
   1.80575001       4.55796899E-16
   1.81350005       4.59105781E-16
   1.82124996       4.57291807E-16
   1.82900000       4.49883815E-16
   1.83675003       4.36436558E-16
   1.84449995       4.16538060E-16
   1.85224998       3.89818009E-16
   1.86000001       3.55955829E-16
   1.86775005       3.14689045E-16
   1.87549996       2.65821544E-16
   1.88325000       2.09231670E-16
   1.89100003       1.44880009E-16
   1.89874995       7.28168814E-17
   1.90649998      -6.81070117E-18
   1.91425002      -9.37528756E-17
   1.92200005      -1.87651309E-16
   1.92974997      -2.88034560E-16
   1.93750000      -3.94314563E-16
   1.94525003      -5.05784178E-16
   1.95299995      -6.21615987E-16
   1.96074998      -7.40862555E-16
   1.96850002      -8.62457947E-16
   1.97625005      -9.85221079E-16
   1.98399997      -1.10786065E-15
   1.99175000      -1.22898149E-15
   1.99950004      -1.34709282E-15
   2.00725007      -1.46061874E-15
   2.01500010      -1.56790944E-15
   2.02274990      -1.66725550E-15
   2.03049994      -1.75690229E-15
   2.03824997      -1.83506745E-15
   2.04600000      -1.89995970E-15
   2.05375004      -1.94979764E-15
   2.06150007      -1.98283192E-15
   2.06925011      -1.99736806E-15
   2.07699990      -1.99178802E-15
   2.08474994      -1.96457582E-15
   2.09249997      -1.91434189E-15
   2.10025001      -1.83984746E-15
   2.10800004      -1.74002950E-15
   2.11575007      -1.61402573E-15
   2.12350011      -1.46119811E-15
   2.13124990      -1.28115586E-15
   2.13899994      -1.07377742E-15
   2.14674997      -8.39230450E-16
   2.15450001      -5.77990349E-16
   2.16225004      -2.90855762E-16
   2.17000008       2.10374479E-17
   2.17775011       3.56205968E-16
   2.18549991       7.12811789E-16
   2.19324994       1.08865788E-15
   2.20099998       1.48118883E-15
   2.20875001       1.88749349E-15
   2.21650004       2.30431438E-15
   2.22425008       2.72805892E-15
   2.23200011       3.15481656E-15
   2.23974991       3.58038032E-15
   2.24749994       4.00027191E-15
   2.25524998       4.40977380E-15
   2.26300001       4.80396176E-15
   2.27075005       5.17774681E-15
   2.27850008       5.52591589E-15
   2.28625011       5.84318225E-15
   2.29399991       6.12423371E-15
   2.30174994       6.36378987E-15
   2.30949998       6.55665716E-15
   2.31725001       6.69778936E-15
   2.32500005       6.78235163E-15
   2.33275008       6.80578014E-15
   2.34050012       6.76384777E-15
   2.34824991       6.65272933E-15
   2.35599995       6.46906421E-15
   2.36374998       6.21001824E-15
   2.37150002       5.87334636E-15
   2.37925005       5.45744853E-15
   2.38700008       4.96142518E-15
   2.39475012       4.38512726E-15
   2.40249991       3.72920231E-15
   2.41024995       2.99513243E-15
   2.41799998       2.18527025E-15
   2.42575002       1.30286288E-15
   2.43350005       3.52071680E-16
   2.44125009      -6.62018293E-16
   2.44899988      -1.73339554E-15
   2.45674992      -2.85513059E-15
   2.46449995      -4.01939368E-15
   2.47224998      -5.21748282E-15
   2.48000002      -6.43985894E-15
   2.48775005      -7.67619712E-15
   2.49550009      -8.91544105E-15
   2.50324988      -1.01458758E-14
   2.51099992      -1.13552051E-14
   2.51874995      -1.25306361E-14
   2.52649999      -1.36589840E-14
   2.53425002      -1.47267740E-14
   2.54200006      -1.57203572E-14
   2.54975009      -1.66260319E-14
   2.55749989      -1.74301779E-14
   2.56524992      -1.81193815E-14
   2.57299995      -1.86805883E-14
   2.58074999      -1.91012333E-14
   2.58850002      -1.93693921E-14
   2.59625006      -1.94739278E-14
   2.60400009      -1.94046354E-14
   2.61174989      -1.91523822E-14
   2.61949992      -1.87092553E-14
   2.62724996      -1.80686917E-14
   2.63499999      -1.72256110E-14
   2.64275002      -1.61765353E-14
   2.65050006      -1.49197010E-14
   2.65825009      -1.34551675E-14
   2.66599989      -1.17848948E-14
   2.67374992      -9.91283251E-15
   2.68149996      -7.84497352E-15
   2.68924999      -5.58939932E-15
   2.69700003      -3.15631496E-15
   2.70475006      -5.58055587E-16
   2.71250010       2.19092293E-15
   2.72024989       5.07406786E-15
   2.72799993       8.07277625E-15
   2.73574996       1.11664692E-14
   2.74349999       1.43326716E-14
   2.75125003       1.75471278E-14
   2.75900006       2.07839219E-14
   2.76675010       2.40156422E-14
   2.77449989       2.72135321E-14
   2.78224993       3.03476828E-14
   2.78999996       3.33872470E-14
   2.79775000       3.63006473E-14
   2.80550003       3.90558218E-14
   2.81325006       4.16204716E-14
   2.82100010       4.39623212E-14
   2.82874990       4.60494002E-14
   2.83649993       4.78503142E-14
   2.84424996       4.93345362E-14
   2.85200000       5.04727011E-14
   2.85975003       5.12369112E-14
   2.86750007       5.16010066E-14
   2.87525010       5.15408673E-14
   2.88299990       5.10347176E-14
   2.89074993       5.00633775E-14
   2.89849997       4.86105500E-14
   2.90625000       4.66630688E-14
   2.91400003       4.42111456E-14
   2.92175007       4.12486038E-14
   2.92950010       3.77730650E-14
   2.93724990       3.37861588E-14
   2.94499993       2.92936587E-14
   2.95274997       2.43056562E-14
   2.96050000       1.88366253E-14
   2.96825004       1.29055507E-14
   2.97600007       6.53594678E-15
   2.98375010      -2.44096684E-16
   2.99149990      -7.40193039E-15
   2.99924994      -1.49003887E-14
   3.00699997      -2.26978606E-14
   3.01475000      -3.07483937E-14
   3.02250004      -3.90018353E-14
   3.03025007      -4.74040092E-14
   3.03800011      -5.58969104E-14
   3.04574990      -6.44189631E-14
   3.05349994      -7.29052642E-14
   3.06124997      -8.12879020E-14
   3.06900001      -8.94963086E-14
   3.07675004      -9.74575577E-14
   3.08450007      -1.05096812E-13
   3.09225011      -1.12337731E-13
   3.09999990      -1.19102875E-13
   3.10774994      -1.25314201E-13
   3.11549997      -1.30893560E-13
   3.12325001      -1.35763159E-13
   3.13100004      -1.39846102E-13
   3.13875008      -1.43066982E-13
   3.14650011      -1.45352358E-13
   3.15424991      -1.46631378E-13
   3.16199994      -1.46836333E-13
   3.16974998      -1.45903268E-13
   3.17750001      -1.43772554E-13
   3.18525004      -1.40389504E-13
   3.19300008      -1.35704978E-13
   3.20075011      -1.29675960E-13
   3.20849991      -1.22266211E-13
   3.21624994      -1.13446795E-13
   3.22399998      -1.03196741E-13
   3.23175001      -9.15035734E-14
   3.23950005      -7.83638833E-14
   3.24725008      -6.37838916E-14
   3.25500011      -4.77799766E-14
   3.26274991      -3.03791789E-14
   3.27049994      -1.16196962E-14
   3.27824998       8.44871065E-15
   3.28600001       2.97642465E-14
   3.29375005       5.22527679E-14
   3.30150008       7.58273991E-14
   3.30925012       1.00388285E-13
   3.31699991       1.25822367E-13
   3.32474995       1.52003193E-13
   3.33249998       1.78790888E-13
   3.34025002       2.06032091E-13
   3.34800005       2.33560025E-13
   3.35575008       2.61194685E-13
   3.36350012       2.88743015E-13
   3.37124991       3.15999315E-13
   3.37899995       3.42745770E-13
   3.38674998       3.68752907E-13
   3.39450002       3.93780332E-13
   3.40225005       4.17577621E-13
   3.41000009       4.39885270E-13
   3.41774988       4.60435834E-13
   3.42549992       4.78955092E-13
   3.43324995       4.95163643E-13
   3.44099998       5.08778295E-13
   3.44875002       5.19513957E-13
   3.45650005       5.27085482E-13
   3.46425009       5.31209679E-13
   3.47199988       5.31607527E-13
   3.47974992       5.28006783E-13
   3.48749995       5.20144095E-13
   3.49524999       5.07768036E-13
   3.50300002       4.90641761E-13
   3.51075006       4.68545884E-13
   3.51850009       4.41281587E-13
   3.52624989       4.08673800E-13
   3.53399992       3.70574339E-13
   3.54174995       3.26865190E-13
   3.54949999       2.77461756E-13
   3.55725002       2.22316252E-13
   3.56500006       1.61420912E-13
   3.57275009       9.48112913E-14
   3.58049989       2.25692810E-14
   3.58824992      -5.51737238E-14
   3.59599996      -1.38234110E-13
   3.60374999      -2.26373309E-13
   3.61150002      -3.19295344E-13
   3.61925006      -4.16644827E-13
   3.62700009      -5.18005072E-13
   3.63474989      -6.22896537E-13
   3.64249992      -7.30776062E-13
   3.65024996      -8.41035954E-13
   3.65799999      -9.53004169E-13
   3.66575003      -1.06594475E-12
   3.67350006      -1.17905891E-12
   3.68125010      -1.29148634E-12
   3.68899989      -1.40230796E-12
   3.69674993      -1.51054885E-12
   3.70449996      -1.61518162E-12
   3.71224999      -1.71513129E-12
   3.72000003      -1.80928026E-12
   3.72775006      -1.89647430E-12
   3.73550010      -1.97552933E-12
   3.74324989      -2.04523898E-12
   3.75099993      -2.10438242E-12
   3.75874996      -2.15173430E-12
   3.76650000      -2.18607359E-12
   3.77425003      -2.20619421E-12
   3.78200006      -2.21091635E-12
   3.78975010      -2.19909833E-12
   3.79749990      -2.16964792E-12
   3.80524993      -2.12153580E-12
   3.81299996      -2.05380851E-12
   3.82075000      -1.96560173E-12
   3.82850003      -1.85615325E-12
   3.83625007      -1.72481734E-12
   3.84400010      -1.57107866E-12
   3.85174990      -1.39456491E-12
   3.85949993      -1.19506033E-12
   3.86724997      -9.72518724E-13
   3.87500000      -7.27075518E-13
   3.88275003      -4.59059602E-13
   3.89050007      -1.69003578E-13
   3.89825010       1.42346055E-13
   3.90599990       4.74020454E-13
   3.91374993       8.24821277E-13
   3.92149997       1.19331454E-12
   3.92925000       1.57782706E-12
   3.93700004       1.97644353E-12
   3.94475007       2.38700552E-12
   3.95250010       2.80711413E-12
   3.96024990       3.23413171E-12
   3.96799994       3.66519011E-12
   3.97574997       4.09719697E-12
   3.98350000       4.52684721E-12
   3.99125004       4.95063495E-12
   3.99900007       5.36487087E-12
   4.00675011       5.76569998E-12
   4.01450014       6.14912071E-12
   4.02225018       6.51101048E-12
   4.03000021       6.84715045E-12
   4.03774977       7.15325325E-12
   4.04549980       7.42499551E-12
   4.05324984       7.65804781E-12
   4.06099987       7.84811365E-12
   4.06874990       7.99096293E-12
   4.07649994       8.08247219E-12
   4.08424997       8.11866459E-12
   4.09200001       8.09575150E-12
   4.09975004       8.01017499E-12
   4.10750008       7.85865210E-12
   4.11525011       7.63821471E-12
   4.12300014       7.34625815E-12
   4.13075018       6.98058191E-12
   4.13850021       6.53943089E-12
   4.14624977       6.02153960E-12
   4.15399981       5.42617080E-12
   4.16174984       4.75315317E-12
   4.16949987       4.00291822E-12
   4.17724991       3.17653130E-12
   4.18499994       2.27572236E-12
   4.19274998       1.30291231E-12
   4.20050001       2.61233174E-13
   4.20825005      -8.45453265E-13
   4.21600008      -2.01254313E-12
   4.22375011      -3.23468531E-12
   4.23150015      -4.50577596E-12
   4.23925018      -5.81896770E-12
   4.24700022      -7.16667741E-12
   4.25474977      -8.54060399E-12
   4.26249981      -9.93175247E-12
   4.27024984      -1.13304687E-11
   4.27799988      -1.27264709E-11
   4.28574991      -1.41088981E-11
   4.29349995      -1.54663660E-11
   4.30124998      -1.67870197E-11
   4.30900002      -1.80586067E-11
   4.31675005      -1.92685434E-11
   4.32450008      -2.04040031E-11
   4.33225012      -2.14519999E-11
   4.34000015      -2.23994764E-11
   4.34775019      -2.32334083E-11
   4.35550022      -2.39409065E-11
   4.36324978      -2.45093234E-11
   4.37099981      -2.49263631E-11
   4.37874985      -2.51802069E-11
   4.38649988      -2.52596156E-11
   4.39424992      -2.51540594E-11
   4.40199995      -2.48538429E-11
   4.40974998      -2.43502146E-11
   4.41750002      -2.36354929E-11
   4.42525005      -2.27031848E-11
   4.43300009      -2.15481001E-11
   4.44075012      -2.01664640E-11
   4.44850016      -1.85560196E-11
   4.45625019      -1.67161320E-11
   4.46400023      -1.46478801E-11
   4.47174978      -1.23541429E-11
   4.47949982      -9.83966988E-12
   4.48724985      -7.11115368E-12
   4.49499989      -4.17727875E-12
   4.50274992      -1.04876210E-12
   4.51049995       2.26161559E-12
   4.51824999       5.73899955E-12
   4.52600002       9.36645986E-12
   4.53375006       1.31250098E-11
   4.54150009       1.69936426E-11
   4.54925013       2.09493811E-11
   4.55700016       2.49673407E-11
   4.56475019       2.90208309E-11
   4.57250023       3.30814438E-11
   4.58024979       3.71191897E-11
   4.58799982       4.11026387E-11
   4.59574986       4.49990704E-11
   4.60349989       4.87746649E-11
   4.61124992       5.23946962E-11
   4.61899996       5.58237380E-11
   4.62674999       5.90259092E-11
   4.63450003       6.19650858E-11
   4.64225006       6.46052170E-11
   4.65000010       6.69105257E-11
   4.65775013       6.88458596E-11
   4.66550016       7.03769404E-11
   4.67325020       7.14706835E-11
   4.68100023       7.20955032E-11
   4.68874979       7.22216315E-11
   4.69649982       7.18214307E-11
   4.70424986       7.08697059E-11
   4.71199989       6.93440444E-11
   4.71974993       6.72250797E-11
   4.72749996       6.44968315E-11
   4.73525000       6.11469902E-11
   4.74300003       5.71671807E-11
   4.75075006       5.25532638E-11
   4.75850010       4.73055518E-11
   4.76625013       4.14290477E-11
   4.77400017       3.49336428E-11
   4.78175020       2.78343026E-11
   4.78950024       2.01512158E-11
   4.79724979       1.19099071E-11
   4.80499983       3.14131989E-12
   4.81274986      -6.11813291E-12
   4.82049990      -1.58265501E-11
   4.82824993      -2.59365879E-11
   4.83599997      -3.63955151E-11
   4.84375000      -4.71453432E-11
   4.85150003      -5.81229752E-11
   4.85925007      -6.92604238E-11
   4.86700010      -8.04850353E-11
   4.87475014      -9.17198123E-11
   4.88250017      -1.02883757E-10
   4.89025021      -1.13892257E-10
   4.89799976      -1.24657493E-10
   4.90574980      -1.35088996E-10
   4.91349983      -1.45094117E-10
   4.92124987      -1.54578517E-10
   4.92899990      -1.63446964E-10
   4.93674994      -1.71603773E-10
   4.94449997      -1.78953644E-10
   4.95225000      -1.85402235E-10
   4.96000004      -1.90857011E-10
   4.96775007      -1.95227876E-10
   4.97550011      -1.98428024E-10
   4.98325014      -2.00374731E-10
   4.99100018      -2.00990127E-10
   4.99875021      -2.00201924E-10
   5.00649977      -1.97944328E-10
   5.01424980      -1.94158675E-10
   5.02199984      -1.88794355E-10
   5.02974987      -1.81809443E-10
   5.03749990      -1.73171422E-10
   5.04524994      -1.62857908E-10
   5.05299997      -1.50857271E-10
   5.06075001      -1.37169151E-10
   5.06850004      -1.21805135E-10
   5.07625008      -1.04789115E-10
   5.08400011      -8.61577060E-11
   5.09175014      -6.59606536E-11
   5.09950018      -4.42610150E-11
   5.10725021      -2.11353660E-11
   5.11499977       3.32612193E-12
   5.12274981       2.90196790E-11
   5.13049984       5.58280713E-11
   5.13824987       8.36207492E-11
   5.14599991       1.12254234E-10
   5.15374994       1.41572462E-10
   5.16149998       1.71407361E-10
   5.16925001       2.01579378E-10
   5.17700005       2.31898362E-10
   5.18475008       2.62164263E-10
   5.19250011       2.92168151E-10
   5.20025015       3.21693311E-10
   5.20800018       3.50516255E-10
   5.21575022       3.78408083E-10
   5.22349977       4.05135842E-10
   5.23124981       4.30463692E-10
   5.23899984       4.54154825E-10
   5.24674988       4.75972706E-10
   5.25449991       4.95682717E-10
   5.26224995       5.13054155E-10
   5.26999998       5.27861643E-10
   5.27775002       5.39886913E-10
   5.28550005       5.48920853E-10
   5.29325008       5.54765123E-10
   5.30100012       5.57233926E-10
   5.30875015       5.56156066E-10
   5.31650019       5.51376278E-10
   5.32425022       5.42757339E-10
   5.33199978       5.30181676E-10
   5.33974981       5.13552922E-10
   5.34749985       4.92797358E-10
   5.35524988       4.67865524E-10
   5.36299992       4.38733661E-10
   5.37074995       4.05404488E-10
   5.37849998       3.67908815E-10
   5.38625002       3.26306177E-10
   5.39400005       2.80685669E-10
   5.40175009       2.31166641E-10
   5.40950012       1.77899057E-10
   5.41725016       1.21063784E-10
   5.42500019       6.08726819E-11
   5.43275023      -2.43164993E-12
   5.44049978      -6.85761586E-11
   5.44824982      -1.37257969E-10
   5.45599985      -2.08145154E-10
   5.46374989      -2.80877821E-10
   5.47149992      -3.55069335E-10
   5.47924995      -4.30307845E-10
   5.48699999      -5.06158060E-10
   5.49475002      -5.82162929E-10
   5.50250006      -6.57846222E-10
   5.51025009      -7.32714556E-10
   5.51800013      -8.06260114E-10
   5.52575016      -8.77963480E-10
   5.53350019      -9.47296575E-10
   5.54125023      -1.01372544E-09
   5.54899979      -1.07671427E-09
   5.55674982      -1.13572818E-09
   5.56449986      -1.19023646E-09
   5.57224989      -1.23971744E-09
   5.57999992      -1.28366118E-09
   5.58774996      -1.32157341E-09
   5.59549999      -1.35297940E-09
   5.60325003      -1.37742795E-09
   5.61100006      -1.39449474E-09
   5.61875010      -1.40378686E-09
   5.62650013      -1.40494583E-09
   5.63425016      -1.39765088E-09
   5.64200020      -1.38162359E-09
   5.64975023      -1.35662970E-09
   5.65749979      -1.32248357E-09
   5.66524982      -1.27905020E-09
   5.67299986      -1.22624810E-09
   5.68074989      -1.16405185E-09
   5.68849993      -1.09249443E-09
   5.69624996      -1.01166808E-09
   5.70400000      -9.21727195E-10
   5.71175003      -8.22887924E-10
   5.71950006      -7.15430215E-10
   5.72725010      -5.99697514E-10
   5.73500013      -4.76096662E-10
   5.74275017      -3.45097978E-10
   5.75050020      -2.07233716E-10
   5.75825024      -6.30972705E-11
   5.76599979       8.66588121E-11
   5.77374983       2.41324960E-10
   5.78149986       4.00137146E-10
   5.78924990       5.62279889E-10
   5.79699993       7.26889937E-10
   5.80474997       8.93059737E-10
   5.81250000       1.05984221E-09
   5.82025003       1.22625521E-09
   5.82800007       1.39128609E-09
   5.83575010       1.55389779E-09
   5.84350014       1.71303416E-09
   5.85125017       1.86762583E-09
   5.85900021       2.01659622E-09
   5.86674976       2.15886886E-09
   5.87449980       2.29337305E-09
   5.88224983       2.41905118E-09
   5.88999987       2.53486521E-09
   5.89774990       2.63980438E-09
   5.90549994       2.73289102E-09
   5.91324997       2.81318902E-09
   5.92100000       2.87980928E-09
   5.92875004       2.93191782E-09
   5.93650007       2.96874192E-09
   5.94425011       2.98957592E-09
   5.95200014       2.99378899E-09
   5.95975018       2.98083047E-09
   5.96750021       2.95023517E-09
   5.97524977       2.90162938E-09
   5.98299980       2.83473489E-09
   5.99074984       2.74937495E-09
   5.99849987       2.64547717E-09
   6.00624990       2.52307730E-09
   6.01399994       2.38232234E-09
   6.02174997       2.22347341E-09
   6.02950001       2.04690664E-09
   6.03725004       1.85311477E-09
   6.04500008       1.64270797E-09
   6.05275011       1.41641354E-09
   6.06050014       1.17507470E-09
   6.06825018       9.19649523E-10
   6.07600021       6.51208254E-10
   6.08374977       3.70930647E-10
   6.09149981       8.01022026E-11
   6.09924984      -2.19890758E-10
   6.10699987      -5.27565547E-10
   6.11474991      -8.41349823E-10
   6.12249994      -1.15958765E-09
   6.13024998      -1.48054657E-09
   6.13800001      -1.80242676E-09
   6.14575005      -2.12336859E-09
   6.15350008      -2.44146214E-09
   6.16125011      -2.75475731E-09
   6.16900015      -3.06127412E-09
   6.17675018      -3.35901418E-09
   6.18450022      -3.64596997E-09
   6.19224977      -3.92013932E-09
   6.19999981      -4.17953672E-09
   6.20774984      -4.42220394E-09
   6.21549988      -4.64622563E-09
   6.22324991      -4.84974017E-09
   6.23099995      -5.03095299E-09
   6.23874998      -5.18814991E-09
   6.24650002      -5.31971001E-09
   6.25425005      -5.42411671E-09
   6.26200008      -5.49997381E-09
   6.26975012      -5.54601387E-09
   6.27750015      -5.56111157E-09
   6.28525019      -5.54429702E-09
   6.29300022      -5.49476198E-09
   6.30074978      -5.41187450E-09
   6.30849981      -5.29518474E-09
   6.31624985      -5.14443510E-09
   6.32399988      -4.95956742E-09
   6.33174992      -4.74073003E-09
   6.33949995      -4.48828175E-09
   6.34724998      -4.20279633E-09
   6.35500002      -3.88506649E-09
   6.36275005      -3.53610496E-09
   6.37050009      -3.15714388E-09
   6.37825012      -2.74963474E-09
   6.38600016      -2.31524533E-09
   6.39375019      -1.85585558E-09
   6.40150023      -1.37355172E-09
   6.40924978      -8.70619243E-10
   6.41699982      -3.49534512E-10
   6.42474985       1.87046101E-10
   6.43249989       7.36297689E-10
   6.44024992       1.29524036E-09
   6.44799995       1.86075311E-09
   6.45574999       2.42959075E-09
   6.46350002       2.99840131E-09
   6.47125006       3.56374330E-09
   6.47900009       4.12210710E-09
   6.48675013       4.66993511E-09
   6.49450016       5.20364196E-09
   6.50225019       5.71963987E-09
   6.51000023       6.21435925E-09
   6.51774979       6.68427269E-09
   6.52549982       7.12591985E-09
   6.53324986       7.53593010E-09
   6.54099989       7.91104871E-09
   6.54874992       8.24815771E-09
   6.55649996       8.54430038E-09